                         Program Version 6.0.1  -  RELEASE   -
|  1> !B3LYP def2-TZVP d3 TightSCF SlowConv defgrid2
|  2>
|  3> %pal
|  4> nprocs 20
|  5> end
|  6>
|  7> %scf
|  8> MaxIter 1500
|  9> end
| 10>
| 11> %maxcore 4000
| 12>
| 13> !CPCM
| 14> %cpcm smd true
| 15> SMDsolvent "ACETONITRILE"
| 16> end
| 17>
| 18> * xyz 0 2
| 19> 9        0.000000000      0.000000000      0.000000000
| 20> **                         ****END OF INPUT****

CARTESIAN COORDINATES (ANGSTROEM)
---------------------------------
  F      0.000000    0.000000    0.000000

 Total Charge           Charge          ....    0
 Multiplicity           Mult            ....    2
 Number of Electrons    NEL             ....    9
 Basis Dimension        Dim             ....   31

ORBITAL ENERGIES
----------------
                 SPIN UP ORBITALS
  NO   OCC          E(Eh)            E(eV)
   0   1.0000     -24.781767      -674.3462
   1   1.0000      -1.229987       -33.4697
   2   1.0000      -0.561707       -15.2848
   3   1.0000      -0.474474       -12.9111
   4   1.0000      -0.474474       -12.9111
   5   0.0000       0.442928        12.0527
   6   0.0000       0.477802        13.0017
   7   0.0000       0.501879        13.6568
   8   0.0000       0.501879        13.6568
   9   0.0000       1.859018        50.5865

                 SPIN DOWN ORBITALS
  NO   OCC          E(Eh)            E(eV)
   0   1.0000     -24.749999      -673.4817
   1   1.0000      -1.138099       -30.9693
   2   1.0000      -0.443155       -12.0589
   3   1.0000      -0.443155       -12.0588
   4   0.0000      -0.266696        -7.2572
   5   0.0000       0.462500        12.5853
   6   0.0000       0.509997        13.8777
   7   0.0000       0.509998        13.8777
   8   0.0000       0.537126        14.6160

MULLIKEN ATOMIC CHARGES AND SPIN POPULATIONS
--------------------------------------------
   0 F :   -0.000000    1.000000
Sum of atomic charges         :   -0.0000000

LOEWDIN ATOMIC CHARGES AND SPIN POPULATIONS
-------------------------------------------
   0 F :    0.000000    1.000000

Dispersion correction            0.000000000
FINAL SINGLE POINT ENERGY       -99.735858129721

DIPOLE MOMENT
-------------

Method             : SCF
Type of density    : Electron Density
Multiplicity       :   2
Irrep              :   0
Energy             :   -99.7358581297210236 Eh
Relativity type    :
Basis              : AO
                                X                 Y                 Z
Electronic contribution:      0.000000000      -0.000000001      -0.000000000
Nuclear contribution   :      0.000000000       0.000000000       0.000000000
                        -----------------------------------------
Total Dipole Moment    :      0.000000000      -0.000000001      -0.000000000
                        -----------------------------------------
Magnitude (a.u.)       :      0.000000001
Magnitude (Debye)      :      0.000000002

Rotational constants in cm-1:             0.000000             0.000000             0.000000
Rotational constants in MHz :             0.000000             0.000000             0.000000

                             ****ORCA TERMINATED NORMALLY****
TOTAL RUN TIME: 0 days 0 hours 0 minutes 6 seconds 238 msec
