                         Program Version 6.0.1  -  RELEASE   -
|  1> !B3LYP def2-TZVP opt d3 TightSCF SlowConv defgrid2
|  2>
|  3> %pal
|  4> nprocs 20
|  5> end
|  6>
|  7> %scf
|  8> MaxIter 1500
|  9> end
| 10>
| 11> %maxcore 8000
| 12>
| 13> !CPCM
| 14> %cpcm smd true
| 15> SMDsolvent "ACETONITRILE"
| 16> end
| 17>
| 18> * xyz -2 2
| 19> 6        6.857280945     27.901753127      3.100719684
| 20> 6        6.154044945     26.704598127      2.411135684
| 21> 6        7.086539945     25.482838127      2.185613684
| 22> 6        6.299616945     24.171731127      1.900070684
| 23> 6        7.185881945     23.070259127      1.248991684
| 24> 6        6.565390945     21.647303127      1.360366684
| 25> 6        7.185681945     20.616666127      0.394672684
| 26> 6        6.843394945     19.121603127      0.784430684
| 27> 9        8.006806945     28.182557127      2.503585684
| 28> 9        7.082780945     27.647576127      4.378925684
| 29> 9        6.067588945     28.966668127      3.018348684
| 30> 9        5.116418945     26.361022127      3.182510684
| 31> 9        5.702795945     27.135986127      1.230360684
| 32> 9        7.887905945     25.777720127      1.156931684
| 33> 9        7.829891945     25.318192127      3.287321684
| 34> 9        5.806494945     23.745652127      3.066652684
| 35> 9        5.287431945     24.474179127      1.076603684
| 36> 9        7.350609945     23.413929127     -0.034316316
| 37> 9        8.377622945     23.098911127      1.865134684
| 38> 9        6.756126945     21.255165127      2.631170684
| 39> 9        5.250981945     21.784657127      1.133608684
| 40> 9        6.706596945     20.903759127     -0.845345316
| 41> 9        8.519170945     20.869305127      0.364163684
| 42> 8        7.813741945     18.363469127      0.789215684
| 43> 8        5.634555945     18.967368127      0.997888684
| 44> 8        2.818390092     18.736599843      1.412612662
| 45> 1        2.716934106     17.791620290      1.243555674
| 46> 1        3.748070901     18.906228277      1.215686974
| 47> *
| 48>
| 49>                          ****END OF INPUT****
 Total Charge           Charge          ....   -2
 Multiplicity           Mult            ....    2
 Number of Electrons    NEL             ....  211
Dispersion correction           -0.046976004
FINAL SINGLE POINT ENERGY     -2029.632977815852
Dispersion correction             ... done (  0.0 sec)
Dispersion correction           -0.045570962
FINAL SINGLE POINT ENERGY     -2029.662837516359
Dispersion correction             ... done (  0.0 sec)
Dispersion correction           -0.044918179
FINAL SINGLE POINT ENERGY     -2029.673447591621
Dispersion correction             ... done (  0.0 sec)
FINAL SINGLE POINT ENERGY     -2029.676742451145
FINAL SINGLE POINT ENERGY     -2029.678091383548
FINAL SINGLE POINT ENERGY     -2029.678991181257
FINAL SINGLE POINT ENERGY     -2029.679244746417
FINAL SINGLE POINT ENERGY     -2029.679539046378
FINAL SINGLE POINT ENERGY     -2029.679636313406
FINAL SINGLE POINT ENERGY     -2029.679779786328
FINAL SINGLE POINT ENERGY     -2029.681271223195
FINAL SINGLE POINT ENERGY     -2029.681276491146
FINAL SINGLE POINT ENERGY     -2029.681280526480
FINAL SINGLE POINT ENERGY     -2029.681284949079
FINAL SINGLE POINT ENERGY     -2029.681288785917
FINAL SINGLE POINT ENERGY     -2029.681290413695
FINAL SINGLE POINT ENERGY     -2029.681254115409
Dispersion correction             ... done (  0.0 sec)
Dispersion correction           -0.045452345
FINAL SINGLE POINT ENERGY     -2029.681291014361
Dispersion correction             ... done (  0.0 sec)
Dispersion correction           -0.045453199
FINAL SINGLE POINT ENERGY     -2029.681291734742
Dispersion correction             ... done (  0.0 sec)
                    ***********************HURRAY********************

CARTESIAN COORDINATES (ANGSTROEM)
---------------------------------
  C      6.859799   28.308382    2.613032
  C      6.310756   26.874593    2.807087
  C      6.911482   25.618673    2.095870
  C      6.433969   24.116596    2.196213
  C      7.039291   22.865127    1.472613
  C      6.529752   21.407102    1.721235
  C      7.017643   20.251552    0.796699
  C      6.681268   18.817959    1.347801
  F      6.772201   28.682229    1.326845
  F      8.146326   28.381730    2.988996
  F      6.187107   29.247227    3.338770
  F      6.389030   26.642705    4.161124
  F      4.986278   26.947333    2.444177
  F      6.833388   25.921108    0.737862
  F      8.244323   25.600662    2.486975
  F      6.516703   23.815995    3.553335
  F      5.100047   24.149386    1.817844
  F      6.902190   23.099921    0.123750
  F      8.379976   22.860404    1.779336
  F      6.872433   21.073759    3.002140
  F      5.166437   21.428223    1.650777
  F      6.451781   20.434429   -0.438066
  F      8.367792   20.398655    0.622225
  O      7.611520   18.226617    1.908196
  O      5.495253   18.457890    1.171438
  O      3.244888   19.245862   -0.190165
  H      3.119582   18.478231   -0.760346
  H      4.087538   19.064965    0.284853

 Multiplicity           Mult            ....    2
 Number of Electrons    NEL             ....  211
 Basis Dimension        Dim             ....  818

ORBITAL ENERGIES
----------------
                 SPIN UP ORBITALS
  NO   OCC          E(Eh)            E(eV)
   0   1.0000     -24.719916      -672.6631
   1   1.0000     -24.719827      -672.6607
   2   1.0000     -24.712037      -672.4487
   3   1.0000     -24.700557      -672.1363
   4   1.0000     -24.700363      -672.1310
   5   1.0000     -24.699206      -672.0996
   6   1.0000     -24.696801      -672.0341
   7   1.0000     -24.693349      -671.9402
   8   1.0000     -24.691934      -671.9017
   9   1.0000     -24.686066      -671.7420
  10   1.0000     -24.685570      -671.7285
  11   1.0000     -24.685113      -671.7161
  12   1.0000     -24.684348      -671.6952
  13   1.0000     -24.683224      -671.6647
  14   1.0000     -24.682529      -671.6457
  15   1.0000     -19.081302      -519.2286
  16   1.0000     -19.062798      -518.7251
  17   1.0000     -19.059003      -518.6218
  18   1.0000     -10.426454      -283.7182
  19   1.0000     -10.354380      -281.7570
  20   1.0000     -10.351058      -281.6666
  21   1.0000     -10.345553      -281.5168
  22   1.0000     -10.337055      -281.2856
  23   1.0000     -10.334435      -281.2143
  24   1.0000     -10.330827      -281.1161
  25   1.0000     -10.252533      -278.9856
  26   1.0000      -1.319829       -35.9144
  27   1.0000      -1.274227       -34.6735
  28   1.0000      -1.264963       -34.4214
  29   1.0000      -1.254507       -34.1369
  30   1.0000      -1.247620       -33.9495
  31   1.0000      -1.242747       -33.8169
  32   1.0000      -1.236332       -33.6423
  33   1.0000      -1.232306       -33.5327
  34   1.0000      -1.224767       -33.3276
  35   1.0000      -1.212381       -32.9906
  36   1.0000      -1.209767       -32.9194
  37   1.0000      -1.200648       -32.6713
  38   1.0000      -1.193116       -32.4663
  39   1.0000      -1.191229       -32.4150
  40   1.0000      -1.185610       -32.2621
  41   1.0000      -1.023899       -27.8617
  42   1.0000      -0.965822       -26.2814
  43   1.0000      -0.938753       -25.5448
  44   1.0000      -0.791159       -21.5285
  45   1.0000      -0.784903       -21.3583
  46   1.0000      -0.755992       -20.5716
  47   1.0000      -0.725537       -19.7429
  48   1.0000      -0.688169       -18.7260
  49   1.0000      -0.657500       -17.8915
  50   1.0000      -0.633418       -17.2362
  51   1.0000      -0.605736       -16.4829
  52   1.0000      -0.603893       -16.4328
  53   1.0000      -0.602056       -16.3828
  54   1.0000      -0.589571       -16.0430
  55   1.0000      -0.583626       -15.8813
  56   1.0000      -0.579710       -15.7747
  57   1.0000      -0.568478       -15.4691
  58   1.0000      -0.566425       -15.4132
  59   1.0000      -0.556878       -15.1534
  60   1.0000      -0.555582       -15.1182
  61   1.0000      -0.550247       -14.9730
  62   1.0000      -0.541723       -14.7410
  63   1.0000      -0.537236       -14.6189
  64   1.0000      -0.532452       -14.4888
  65   1.0000      -0.522464       -14.2170
  66   1.0000      -0.497897       -13.5485
  67   1.0000      -0.478414       -13.0183
  68   1.0000      -0.478376       -13.0173
  69   1.0000      -0.472441       -12.8558
  70   1.0000      -0.461100       -12.5472
  71   1.0000      -0.458662       -12.4808
  72   1.0000      -0.455006       -12.3813
  73   1.0000      -0.453000       -12.3268
  74   1.0000      -0.450128       -12.2486
  75   1.0000      -0.447009       -12.1637
  76   1.0000      -0.446596       -12.1525
  77   1.0000      -0.443366       -12.0646
  78   1.0000      -0.440697       -11.9920
  79   1.0000      -0.437986       -11.9182
  80   1.0000      -0.432017       -11.7558
  81   1.0000      -0.430180       -11.7058
  82   1.0000      -0.423751       -11.5308
  83   1.0000      -0.419624       -11.4185
  84   1.0000      -0.418725       -11.3941
  85   1.0000      -0.418587       -11.3903
  86   1.0000      -0.412213       -11.2169
  87   1.0000      -0.408556       -11.1174
  88   1.0000      -0.406574       -11.0634
  89   1.0000      -0.403082       -10.9684
  90   1.0000      -0.401652       -10.9295
  91   1.0000      -0.398813       -10.8523
  92   1.0000      -0.397559       -10.8181
  93   1.0000      -0.396188       -10.7808
  94   1.0000      -0.389534       -10.5998
  95   1.0000      -0.383292       -10.4299
  96   1.0000      -0.379638       -10.3305
  97   1.0000      -0.370378       -10.0785
  98   1.0000      -0.349398        -9.5076
  99   1.0000      -0.347159        -9.4467
 100   1.0000      -0.316455        -8.6112
 101   1.0000      -0.278699        -7.5838
 102   1.0000      -0.251094        -6.8326
 103   1.0000      -0.241545        -6.5728
 104   1.0000      -0.235622        -6.4116
 105   1.0000      -0.074498        -2.0272
 106   0.0000       0.023914         0.6507
 107   0.0000       0.045270         1.2319
 108   0.0000       0.058759         1.5989
 109   0.0000       0.066700         1.8150
 110   0.0000       0.073624         2.0034

                 SPIN DOWN ORBITALS
  NO   OCC          E(Eh)            E(eV)
   0   1.0000     -24.719856      -672.6615
   1   1.0000     -24.719767      -672.6590
   2   1.0000     -24.710898      -672.4177
   3   1.0000     -24.700124      -672.1245
   4   1.0000     -24.699918      -672.1190
   5   1.0000     -24.699105      -672.0968
   6   1.0000     -24.696629      -672.0294
   7   1.0000     -24.692994      -671.9305
   8   1.0000     -24.691554      -671.8913
   9   1.0000     -24.686010      -671.7405
  10   1.0000     -24.685028      -671.7138
  11   1.0000     -24.684870      -671.7095
  12   1.0000     -24.683590      -671.6746
  13   1.0000     -24.682576      -671.6471
  14   1.0000     -24.681823      -671.6266
  15   1.0000     -19.081302      -519.2286
  16   1.0000     -19.062634      -518.7207
  17   1.0000     -19.058786      -518.6159
  18   1.0000     -10.425015      -283.6791
  19   1.0000     -10.352173      -281.6970
  20   1.0000     -10.349929      -281.6359
  21   1.0000     -10.343343      -281.4567
  22   1.0000     -10.333538      -281.1899
  23   1.0000     -10.330973      -281.1201
  24   1.0000     -10.330336      -281.1027
  25   1.0000     -10.252352      -278.9807
  26   1.0000      -1.318820       -35.8869
  27   1.0000      -1.273272       -34.6475
  28   1.0000      -1.263355       -34.3776
  29   1.0000      -1.253281       -34.1035
  30   1.0000      -1.247324       -33.9414
  31   1.0000      -1.240984       -33.7689
  32   1.0000      -1.236128       -33.6368
  33   1.0000      -1.230435       -33.4818
  34   1.0000      -1.222811       -33.2744
  35   1.0000      -1.211798       -32.9747
  36   1.0000      -1.208772       -32.8924
  37   1.0000      -1.199813       -32.6486
  38   1.0000      -1.191875       -32.4326
  39   1.0000      -1.190868       -32.4052
  40   1.0000      -1.184117       -32.2215
  41   1.0000      -1.023505       -27.8510
  42   1.0000      -0.965809       -26.2810
  43   1.0000      -0.938370       -25.5343
  44   1.0000      -0.782988       -21.3062
  45   1.0000      -0.778938       -21.1960
  46   1.0000      -0.748069       -20.3560
  47   1.0000      -0.719392       -19.5756
  48   1.0000      -0.684285       -18.6203
  49   1.0000      -0.655038       -17.8245
  50   1.0000      -0.631251       -17.1772
  51   1.0000      -0.604983       -16.4624
  52   1.0000      -0.601021       -16.3546
  53   1.0000      -0.598386       -16.2829
  54   1.0000      -0.587361       -15.9829
  55   1.0000      -0.580202       -15.7881
  56   1.0000      -0.578495       -15.7416
  57   1.0000      -0.566970       -15.4280
  58   1.0000      -0.562500       -15.3064
  59   1.0000      -0.555234       -15.1087
  60   1.0000      -0.551940       -15.0191
  61   1.0000      -0.548367       -14.9218
  62   1.0000      -0.540651       -14.7119
  63   1.0000      -0.533087       -14.5060
  64   1.0000      -0.530092       -14.4245
  65   1.0000      -0.521170       -14.1818
  66   1.0000      -0.497827       -13.5466
  67   1.0000      -0.477949       -13.0057
  68   1.0000      -0.476315       -12.9612
  69   1.0000      -0.471764       -12.8373
  70   1.0000      -0.460525       -12.5315
  71   1.0000      -0.458117       -12.4660
  72   1.0000      -0.454635       -12.3713
  73   1.0000      -0.452590       -12.3156
  74   1.0000      -0.449255       -12.2249
  75   1.0000      -0.446388       -12.1468
  76   1.0000      -0.445742       -12.1292
  77   1.0000      -0.442530       -12.0418
  78   1.0000      -0.439619       -11.9626
  79   1.0000      -0.437260       -11.8984
  80   1.0000      -0.430908       -11.7256
  81   1.0000      -0.429065       -11.6755
  82   1.0000      -0.423092       -11.5129
  83   1.0000      -0.418650       -11.3920
  84   1.0000      -0.418063       -11.3761
  85   1.0000      -0.417601       -11.3635
  86   1.0000      -0.411311       -11.1923
  87   1.0000      -0.407210       -11.0808
  88   1.0000      -0.406059       -11.0494
  89   1.0000      -0.402011       -10.9393
  90   1.0000      -0.400399       -10.8954
  91   1.0000      -0.397213       -10.8087
  92   1.0000      -0.394499       -10.7349
  93   1.0000      -0.393319       -10.7027
  94   1.0000      -0.386361       -10.5134
  95   1.0000      -0.382209       -10.4004
  96   1.0000      -0.373658       -10.1678
  97   1.0000      -0.365335        -9.9413
  98   1.0000      -0.348847        -9.4926
  99   1.0000      -0.343583        -9.3494
 100   1.0000      -0.313688        -8.5359
 101   1.0000      -0.278689        -7.5835
 102   1.0000      -0.250101        -6.8056
 103   1.0000      -0.240918        -6.5557
 104   1.0000      -0.235012        -6.3950
 105   0.0000      -0.004855        -0.1321
 106   0.0000       0.034650         0.9429
 107   0.0000       0.050588         1.3766
 108   0.0000       0.062437         1.6990
 109   0.0000       0.069424         1.8891

MULLIKEN ATOMIC CHARGES AND SPIN POPULATIONS
--------------------------------------------
   0 C :    0.444651    0.071680
   1 C :    0.285814    0.136627
   2 C :    0.231581    0.247119
   3 C :    0.250272    0.249899
   4 C :    0.286626    0.146646
   5 C :    0.283191    0.063245
   6 C :    0.348100    0.024693
   7 C :    0.179957    0.008562
   8 F :   -0.178759   -0.000110
   9 F :   -0.178842   -0.000128
  10 F :   -0.190890    0.012212
  11 F :   -0.215188    0.002889
  12 F :   -0.214327    0.002871
  13 F :   -0.241023    0.004862
  14 F :   -0.237843    0.004509
  15 F :   -0.241638    0.003855
  16 F :   -0.236454    0.003544
  17 F :   -0.223502    0.001259
  18 F :   -0.222359    0.001564
  19 F :   -0.215717    0.000628
  20 F :   -0.209789    0.001098
  21 F :   -0.226933    0.000366
  22 F :   -0.222716    0.000401
  23 O :   -0.470487    0.006678
  24 O :   -0.528169    0.005009
  25 O :   -0.736228   -0.000020
  26 H :    0.323694    0.000011
  27 H :    0.356980    0.000028
Sum of atomic charges         :   -2.0000000

LOEWDIN ATOMIC CHARGES AND SPIN POPULATIONS
-------------------------------------------
   0 C :   -0.653314    0.060707
   1 C :   -0.478664    0.141383
   2 C :   -0.470890    0.217282
   3 C :   -0.471934    0.213423
   4 C :   -0.466986    0.134897
   5 C :   -0.457856    0.063852
   6 C :   -0.442520    0.028590
   7 C :   -0.670772    0.010472
   8 F :    0.195746    0.001667
   9 F :    0.195701    0.001635
  10 F :    0.156797    0.022334
  11 F :    0.154577    0.008327
  12 F :    0.155858    0.008144
  13 F :    0.120689    0.014203
  14 F :    0.126769    0.013437
  15 F :    0.120877    0.013222
  16 F :    0.128453    0.012568
  17 F :    0.152480    0.006768
  18 F :    0.151839    0.007230
  19 F :    0.172042    0.002271
  20 F :    0.175372    0.003081
  21 F :    0.147790    0.001283
  22 F :    0.151137    0.001496
  23 O :   -0.045007    0.006590
  24 O :   -0.065522    0.005159
  25 O :   -0.375070   -0.000004
  26 H :    0.153332    0.000007
  27 H :    0.139073   -0.000024

  Mayer bond orders larger than 0.100000
B(  0-C ,  1-C ) :   0.9611 B(  0-C ,  8-F ) :   1.1354 B(  0-C ,  9-F ) :   1.1353
B(  0-C , 10-F ) :   1.0886 B(  1-C ,  2-C ) :   0.9181 B(  1-C , 11-F ) :   1.0281
B(  1-C , 12-F ) :   1.0287 B(  2-C ,  3-C ) :   0.9147 B(  2-C , 13-F ) :   0.9890
B(  2-C , 14-F ) :   0.9926 B(  3-C ,  4-C ) :   0.9075 B(  3-C , 15-F ) :   0.9845
B(  3-C , 16-F ) :   0.9926 B(  4-C ,  5-C ) :   0.8838 B(  4-C , 17-F ) :   1.0219
B(  4-C , 18-F ) :   1.0231 B(  5-C ,  6-C ) :   0.8878 B(  5-C , 19-F ) :   1.0405
B(  5-C , 20-F ) :   1.0588 B(  6-C ,  7-C ) :   0.8743 B(  6-C , 21-F ) :   1.0218
B(  6-C , 22-F ) :   1.0472 B(  7-C , 23-O ) :   1.9263 B(  7-C , 24-O ) :   1.7010
B( 24-O , 27-H ) :   0.1174 B( 25-O , 26-H ) :   0.9039 B( 25-O , 27-H ) :   0.8149

Dispersion correction           -0.045452391
FINAL SINGLE POINT ENERGY     -2029.681291704766

DIPOLE MOMENT
-------------

Method             : SCF
Type of density    : Electron Density
Multiplicity       :   2
Irrep              :   0
Energy             : -2029.6358393137588791 Eh
Relativity type    :
Basis              : AO
                                X                 Y                 Z
Electronic contribution:      8.748086325      28.564894395       6.204952370
Nuclear contribution   :     -7.969080889     -22.194447628      -5.908704691
                        -----------------------------------------
Total Dipole Moment    :      0.779005436       6.370446767       0.296247679
                        -----------------------------------------
Magnitude (a.u.)       :      6.424733782
Magnitude (Debye)      :     16.330375477

Rotational constants in cm-1:             0.017001             0.003082             0.002970
Rotational constants in MHz :           509.678679            92.383360            89.043497

                             ****ORCA TERMINATED NORMALLY****
TOTAL RUN TIME: 0 days 0 hours 58 minutes 3 seconds 591 msec
