                         Program Version 6.0.1  -  RELEASE   -
|  1> !TPSSh def2-TZVP freq d3 TightSCF SlowConv defgrid2
|  2>
|  3> %pal
|  4> nprocs 20
|  5> end
|  6>
|  7> %scf
|  8> MaxIter 1500
|  9> end
| 10>
| 11> %maxcore 8000
| 12>
| 13> !CPCM
| 14> %cpcm smd true
| 15> SMDsolvent "ACETONITRILE"
| 16> end
| 17>
| 18> * xyz 0 2
| 19> 6        4.674951000      0.153200000     -0.467596000
| 20> 8        5.019642000     -0.694587000     -1.427402000
| 21> 8        5.158884000      1.227076000     -0.234502000
| 22> 6        3.496194000     -0.408073000      0.374369000
| 23> 6        2.117996000      0.058620000     -0.193270000
| 24> 6        0.875456000     -0.667217000      0.426536000
| 25> 6       -0.467080000      0.108951000      0.209507000
| 26> 6       -1.765034000     -0.750396000      0.389401000
| 27> 6       -3.007455000      0.085345000      0.478274000
| 28> 6       -4.037801000      0.258747000     -0.597609000
| 29> 9        3.518325000     -1.762522000      0.402170000
| 30> 9        3.627045000      0.048959000      1.637572000
| 31> 9        2.009946000      1.389559000      0.019024000
| 32> 9        2.115132000     -0.163800000     -1.527472000
| 33> 9        0.773440000     -1.890952000     -0.135857000
| 34> 9        1.067316000     -0.821556000      1.753942000
| 35> 9       -0.519886000      1.127142000      1.096981000
| 36> 9       -0.490388000      0.625223000     -1.040071000
| 37> 9       -1.629248000     -1.481094000      1.527671000
| 38> 9       -1.872453000     -1.595388000     -0.664277000
| 39> 9       -3.324071000      0.547474000      1.674586000
| 40> 9       -4.887842000     -0.790449000     -0.675401000
| 41> 9       -4.775307000      1.351652000     -0.354663000
| 42> 9       -3.457571000      0.389240000     -1.801497000
| 43> 1        5.753132000     -0.305601000     -1.947424000
| 44> *
| 45>
| 46>                          ****END OF INPUT****

CARTESIAN COORDINATES (ANGSTROEM)
---------------------------------
  C      4.674951    0.153200   -0.467596
  O      5.019642   -0.694587   -1.427402
  O      5.158884    1.227076   -0.234502
  C      3.496194   -0.408073    0.374369
  C      2.117996    0.058620   -0.193270
  C      0.875456   -0.667217    0.426536
  C     -0.467080    0.108951    0.209507
  C     -1.765034   -0.750396    0.389401
  C     -3.007455    0.085345    0.478274
  C     -4.037801    0.258747   -0.597609
  F      3.518325   -1.762522    0.402170
  F      3.627045    0.048959    1.637572
  F      2.009946    1.389559    0.019024
  F      2.115132   -0.163800   -1.527472
  F      0.773440   -1.890952   -0.135857
  F      1.067316   -0.821556    1.753942
  F     -0.519886    1.127142    1.096981
  F     -0.490388    0.625223   -1.040071
  F     -1.629248   -1.481094    1.527671
  F     -1.872453   -1.595388   -0.664277
  F     -3.324071    0.547474    1.674586
  F     -4.887842   -0.790449   -0.675401
  F     -4.775307    1.351652   -0.354663
  F     -3.457571    0.389240   -1.801497
  H      5.753132   -0.305601   -1.947424

 Total Charge           Charge          ....    0
 Multiplicity           Mult            ....    2
 Number of Electrons    NEL             ....  191
 Basis Dimension        Dim             ....  750

ORBITAL ENERGIES
----------------
                 SPIN UP ORBITALS
  NO   OCC          E(Eh)            E(eV)
   0   1.0000     -24.674262      -671.4208
   1   1.0000     -24.660263      -671.0399
   2   1.0000     -24.659548      -671.0204
   3   1.0000     -24.659539      -671.0202
   4   1.0000     -24.659508      -671.0193
   5   1.0000     -24.659444      -671.0176
   6   1.0000     -24.658873      -671.0020
   7   1.0000     -24.656689      -670.9426
   8   1.0000     -24.654854      -670.8927
   9   1.0000     -24.654781      -670.8907
  10   1.0000     -24.654410      -670.8806
  11   1.0000     -24.651024      -670.7885
  12   1.0000     -24.649448      -670.7456
  13   1.0000     -24.649366      -670.7434
  14   1.0000     -19.133365      -520.6453
  15   1.0000     -19.079938      -519.1915
  16   1.0000     -10.394048      -282.8364
  17   1.0000     -10.344923      -281.4997
  18   1.0000     -10.344619      -281.4914
  19   1.0000     -10.341820      -281.4152
  20   1.0000     -10.341526      -281.4072
  21   1.0000     -10.332820      -281.1703
  22   1.0000     -10.281015      -279.7606
  23   1.0000     -10.267820      -279.4016
  24   1.0000      -1.310664       -35.6650
  25   1.0000      -1.302458       -35.4417
  26   1.0000      -1.288646       -35.0658
  27   1.0000      -1.277878       -34.7728
  28   1.0000      -1.275404       -34.7055
  29   1.0000      -1.270836       -34.5812
  30   1.0000      -1.265951       -34.4483
  31   1.0000      -1.235426       -33.6176
  32   1.0000      -1.228191       -33.4208
  33   1.0000      -1.225526       -33.3483
  34   1.0000      -1.221840       -33.2479
  35   1.0000      -1.219599       -33.1870
  36   1.0000      -1.219346       -33.1801
  37   1.0000      -1.215270       -33.0692
  38   1.0000      -1.119382       -30.4599
  39   1.0000      -1.035427       -28.1754
  40   1.0000      -0.833798       -22.6888
  41   1.0000      -0.817437       -22.2436
  42   1.0000      -0.788671       -21.4608
  43   1.0000      -0.752710       -20.4823
  44   1.0000      -0.713447       -19.4139
  45   1.0000      -0.672865       -18.3096
  46   1.0000      -0.651736       -17.7346
  47   1.0000      -0.642403       -17.4807
  48   1.0000      -0.619106       -16.8467
  49   1.0000      -0.615199       -16.7404
  50   1.0000      -0.609938       -16.5973
  51   1.0000      -0.603340       -16.4177
  52   1.0000      -0.598874       -16.2962
  53   1.0000      -0.595358       -16.2005
  54   1.0000      -0.586938       -15.9714
  55   1.0000      -0.584956       -15.9175
  56   1.0000      -0.581517       -15.8239
  57   1.0000      -0.569926       -15.5085
  58   1.0000      -0.566071       -15.4036
  59   1.0000      -0.559555       -15.2263
  60   1.0000      -0.553528       -15.0623
  61   1.0000      -0.546240       -14.8640
  62   1.0000      -0.508291       -13.8313
  63   1.0000      -0.497675       -13.5424
  64   1.0000      -0.482336       -13.1250
  65   1.0000      -0.482056       -13.1174
  66   1.0000      -0.475637       -12.9427
  67   1.0000      -0.472952       -12.8697
  68   1.0000      -0.467963       -12.7339
  69   1.0000      -0.465456       -12.6657
  70   1.0000      -0.461703       -12.5636
  71   1.0000      -0.460913       -12.5421
  72   1.0000      -0.458436       -12.4747
  73   1.0000      -0.455485       -12.3944
  74   1.0000      -0.449982       -12.2446
  75   1.0000      -0.446465       -12.1489
  76   1.0000      -0.443514       -12.0686
  77   1.0000      -0.440138       -11.9768
  78   1.0000      -0.436869       -11.8878
  79   1.0000      -0.432239       -11.7618
  80   1.0000      -0.427139       -11.6230
  81   1.0000      -0.425956       -11.5908
  82   1.0000      -0.424323       -11.5464
  83   1.0000      -0.420187       -11.4339
  84   1.0000      -0.419379       -11.4119
  85   1.0000      -0.416351       -11.3295
  86   1.0000      -0.413733       -11.2582
  87   1.0000      -0.410978       -11.1833
  88   1.0000      -0.406764       -11.0686
  89   1.0000      -0.403798       -10.9879
  90   1.0000      -0.391362       -10.6495
  91   1.0000      -0.367667       -10.0047
  92   1.0000      -0.340359        -9.2617
  93   1.0000      -0.334469        -9.1014
  94   1.0000      -0.296338        -8.0638
  95   1.0000      -0.260542        -7.0897
  96   0.0000      -0.065553        -1.7838
  97   0.0000      -0.013660        -0.3717
  98   0.0000      -0.000295        -0.0080
  99   0.0000       0.018598         0.5061
 100   0.0000       0.036546         0.9945

                 SPIN DOWN ORBITALS
  NO   OCC          E(Eh)            E(eV)
   0   1.0000     -24.669729      -671.2974
   1   1.0000     -24.660247      -671.0394
   2   1.0000     -24.659554      -671.0206
   3   1.0000     -24.659542      -671.0203
   4   1.0000     -24.659477      -671.0185
   5   1.0000     -24.659436      -671.0174
   6   1.0000     -24.658870      -671.0020
   7   1.0000     -24.656353      -670.9335
   8   1.0000     -24.654342      -670.8788
   9   1.0000     -24.654164      -670.8739
  10   1.0000     -24.654126      -670.8729
  11   1.0000     -24.651025      -670.7885
  12   1.0000     -24.649447      -670.7455
  13   1.0000     -24.647986      -670.7058
  14   1.0000     -19.133364      -520.6453
  15   1.0000     -19.079933      -519.1914
  16   1.0000     -10.394777      -282.8563
  17   1.0000     -10.345548      -281.5167
  18   1.0000     -10.344813      -281.4967
  19   1.0000     -10.341480      -281.4060
  20   1.0000     -10.341187      -281.3980
  21   1.0000     -10.332804      -281.1699
  22   1.0000     -10.281010      -279.7605
  23   1.0000     -10.252019      -278.9716
  24   1.0000      -1.309203       -35.6252
  25   1.0000      -1.302265       -35.4364
  26   1.0000      -1.288105       -35.0511
  27   1.0000      -1.277465       -34.7616
  28   1.0000      -1.274246       -34.6740
  29   1.0000      -1.270733       -34.5784
  30   1.0000      -1.258706       -34.2511
  31   1.0000      -1.235281       -33.6137
  32   1.0000      -1.227890       -33.4126
  33   1.0000      -1.224750       -33.3271
  34   1.0000      -1.221672       -33.2434
  35   1.0000      -1.218487       -33.1567
  36   1.0000      -1.217326       -33.1251
  37   1.0000      -1.215267       -33.0691
  38   1.0000      -1.119377       -30.4598
  39   1.0000      -1.035420       -28.1752
  40   1.0000      -0.826299       -22.4847
  41   1.0000      -0.810361       -22.0511
  42   1.0000      -0.783226       -21.3127
  43   1.0000      -0.750120       -20.4118
  44   1.0000      -0.712193       -19.3798
  45   1.0000      -0.669725       -18.2242
  46   1.0000      -0.648011       -17.6333
  47   1.0000      -0.642175       -17.4745
  48   1.0000      -0.617672       -16.8077
  49   1.0000      -0.613423       -16.6921
  50   1.0000      -0.608317       -16.5531
  51   1.0000      -0.601528       -16.3684
  52   1.0000      -0.597833       -16.2679
  53   1.0000      -0.590193       -16.0600
  54   1.0000      -0.586550       -15.9608
  55   1.0000      -0.583617       -15.8810
  56   1.0000      -0.580855       -15.8059
  57   1.0000      -0.569322       -15.4920
  58   1.0000      -0.564999       -15.3744
  59   1.0000      -0.558445       -15.1961
  60   1.0000      -0.552721       -15.0403
  61   1.0000      -0.546021       -14.8580
  62   1.0000      -0.497671       -13.5423
  63   1.0000      -0.482846       -13.1389
  64   1.0000      -0.482102       -13.1187
  65   1.0000      -0.478450       -13.0193
  66   1.0000      -0.474216       -12.9041
  67   1.0000      -0.471815       -12.8387
  68   1.0000      -0.466108       -12.6834
  69   1.0000      -0.463831       -12.6215
  70   1.0000      -0.461150       -12.5485
  71   1.0000      -0.460159       -12.5216
  72   1.0000      -0.456377       -12.4186
  73   1.0000      -0.454838       -12.3768
  74   1.0000      -0.448663       -12.2087
  75   1.0000      -0.446089       -12.1387
  76   1.0000      -0.442465       -12.0401
  77   1.0000      -0.438439       -11.9305
  78   1.0000      -0.435032       -11.8378
  79   1.0000      -0.431803       -11.7499
  80   1.0000      -0.425890       -11.5891
  81   1.0000      -0.424679       -11.5561
  82   1.0000      -0.423518       -11.5245
  83   1.0000      -0.419846       -11.4246
  84   1.0000      -0.418816       -11.3966
  85   1.0000      -0.415916       -11.3176
  86   1.0000      -0.413473       -11.2512
  87   1.0000      -0.410486       -11.1699
  88   1.0000      -0.405693       -11.0395
  89   1.0000      -0.402434       -10.9508
  90   1.0000      -0.389467       -10.5979
  91   1.0000      -0.366126        -9.9628
  92   1.0000      -0.340275        -9.2594
  93   1.0000      -0.332950        -9.0600
  94   1.0000      -0.296140        -8.0584
  95   0.0000      -0.135127        -3.6770
  96   0.0000      -0.064810        -1.7636
  97   0.0000      -0.010476        -0.2851
  98   0.0000       0.004978         0.1354
  99   0.0000       0.022785         0.6200

MULLIKEN ATOMIC CHARGES AND SPIN POPULATIONS
--------------------------------------------
   0 C :    0.223148    0.000221
   1 O :   -0.338782    0.000016
   2 O :   -0.287722    0.000171
   3 C :    0.376460    0.000480
   4 C :    0.270200    0.002274
   5 C :    0.286286    0.005441
   6 C :    0.273941    0.030804
   7 C :    0.343991   -0.016431
   8 C :    0.147208    0.852492
   9 C :    0.414397   -0.018352
  10 F :   -0.159636   -0.000004
  11 F :   -0.154346    0.000036
  12 F :   -0.153430   -0.000012
  13 F :   -0.153707    0.000065
  14 F :   -0.150031   -0.000172
  15 F :   -0.149177    0.000144
  16 F :   -0.152703   -0.000247
  17 F :   -0.154123   -0.000501
  18 F :   -0.154754    0.013535
  19 F :   -0.152640    0.005214
  20 F :   -0.122318    0.086845
  21 F :   -0.149846    0.026430
  22 F :   -0.141276    0.004156
  23 F :   -0.143605    0.007371
  24 H :    0.382465    0.000024
Sum of atomic charges         :    0.0000000

LOEWDIN ATOMIC CHARGES AND SPIN POPULATIONS
-------------------------------------------
   0 C :   -0.490383    0.000179
   1 O :    0.156849    0.000027
   2 O :    0.135976    0.000145
   3 C :   -0.452632    0.000597
   4 C :   -0.455709    0.001748
   5 C :   -0.458650    0.005036
   6 C :   -0.454609    0.022791
   7 C :   -0.481700    0.062853
   8 C :   -0.166354    0.667721
   9 C :   -0.671952    0.059081
  10 F :    0.209785   -0.000012
  11 F :    0.217340    0.000042
  12 F :    0.225095   -0.000053
  13 F :    0.223363    0.000094
  14 F :    0.225065   -0.000101
  15 F :    0.226125    0.000251
  16 F :    0.225251    0.001108
  17 F :    0.224554    0.000704
  18 F :    0.212666    0.014479
  19 F :    0.219860    0.006737
  20 F :    0.266590    0.110765
  21 F :    0.196115    0.030036
  22 F :    0.218439    0.005735
  23 F :    0.215003    0.010027
  24 H :    0.233912    0.000011

  Mayer bond orders larger than 0.100000
B(  0-C ,  1-O ) :   1.3151 B(  0-C ,  2-O ) :   2.0743 B(  0-C ,  3-C ) :   0.9054
B(  1-O , 24-H ) :   0.8194 B(  3-C ,  4-C ) :   0.9560 B(  3-C , 10-F ) :   1.0983
B(  3-C , 11-F ) :   1.1212 B(  4-C ,  5-C ) :   0.9461 B(  4-C , 12-F ) :   1.0916
B(  4-C , 13-F ) :   1.0903 B(  5-C ,  6-C ) :   0.9457 B(  5-C , 14-F ) :   1.0960
B(  5-C , 15-F ) :   1.0983 B(  6-C ,  7-C ) :   0.9470 B(  6-C , 16-F ) :   1.0905
B(  6-C , 17-F ) :   1.0928 B(  7-C ,  8-C ) :   1.0078 B(  7-C , 18-F ) :   1.0851
B(  7-C , 19-F ) :   1.1028 B(  8-C ,  9-C ) :   1.0557 B(  8-C , 20-F ) :   1.1486
B(  9-C , 21-F ) :   1.1450 B(  9-C , 22-F ) :   1.1557 B(  9-C , 23-F ) :   1.1484

Dispersion correction           -0.029701154
FINAL SINGLE POINT ENERGY     -1854.407198666377

DIPOLE MOMENT
-------------

Method             : SCF
Type of density    : Electron Density
Multiplicity       :   2
Irrep              :   0
Energy             : -1854.3774975124683806 Eh
Relativity type    :
Basis              : AO
                                X                 Y                 Z
Electronic contribution:    -13.482259000      -0.876677888       2.463540731
Nuclear contribution   :     14.101283377       0.604175683      -3.161106008
                        -----------------------------------------
Total Dipole Moment    :      0.619024377      -0.272502205      -0.697565277
                        -----------------------------------------
Magnitude (a.u.)       :      0.971620269
Magnitude (Debye)      :      2.469662455

VIBRATIONAL FREQUENCIES
-----------------------

Scaling factor for frequencies =  1.000000000  (already applied!)

     0:       0.00 cm**-1
     1:       0.00 cm**-1
     2:       0.00 cm**-1
     3:       0.00 cm**-1
     4:       0.00 cm**-1
     5:       0.00 cm**-1
     6:      14.55 cm**-1
     7:      23.78 cm**-1
     8:      26.22 cm**-1
     9:      38.92 cm**-1
    10:      42.01 cm**-1
    11:      56.49 cm**-1
    12:      58.07 cm**-1
    13:      68.22 cm**-1
    14:      92.96 cm**-1
    15:     124.61 cm**-1
    16:     142.67 cm**-1
    17:     160.27 cm**-1
    18:     182.04 cm**-1
    19:     189.44 cm**-1
    20:     202.24 cm**-1
    21:     216.33 cm**-1
    22:     236.06 cm**-1
    23:     237.83 cm**-1
    24:     253.33 cm**-1
    25:     262.22 cm**-1
    26:     296.61 cm**-1
    27:     303.61 cm**-1
    28:     315.95 cm**-1
    29:     341.15 cm**-1
    30:     345.29 cm**-1
    31:     355.11 cm**-1
    32:     365.96 cm**-1
    33:     367.64 cm**-1
    34:     397.96 cm**-1
    35:     418.75 cm**-1
    36:     459.19 cm**-1
    37:     496.09 cm**-1
    38:     509.02 cm**-1
    39:     538.71 cm**-1
    40:     545.68 cm**-1
    41:     554.68 cm**-1
    42:     570.14 cm**-1
    43:     581.76 cm**-1
    44:     599.31 cm**-1
    45:     617.64 cm**-1
    46:     632.37 cm**-1
    47:     661.45 cm**-1
    48:     686.79 cm**-1
    49:     706.15 cm**-1
    50:     737.18 cm**-1
    51:     767.73 cm**-1
    52:     866.75 cm**-1
    53:     989.07 cm**-1
    54:    1050.42 cm**-1
    55:    1067.74 cm**-1
    56:    1113.00 cm**-1
    57:    1115.17 cm**-1
    58:    1122.68 cm**-1
    59:    1129.93 cm**-1
    60:    1134.98 cm**-1
    61:    1138.98 cm**-1
    62:    1144.29 cm**-1
    63:    1152.04 cm**-1
    64:    1155.29 cm**-1
    65:    1176.36 cm**-1
    66:    1199.77 cm**-1
    67:    1205.11 cm**-1
    68:    1255.68 cm**-1
    69:    1285.42 cm**-1
    70:    1323.04 cm**-1
    71:    1390.11 cm**-1
    72:    1403.17 cm**-1
    73:    1808.24 cm**-1
    74:    3605.56 cm**-1

IR SPECTRUM
-----------

 Mode   freq       eps      Int      T**2         TX        TY        TZ
       cm**-1   L/(mol*cm) km/mol    a.u.
----------------------------------------------------------------------------
  6:     14.55   0.000059    0.30  0.001268  ( 0.012707  0.033243 -0.001146)
  7:     23.78   0.000142    0.72  0.001862  ( 0.020304 -0.033959  0.017212)
  8:     26.22   0.000131    0.66  0.001561  ( 0.014684  0.033260 -0.015474)
  9:     38.92   0.000059    0.30  0.000469  ( 0.006332 -0.020101 -0.005018)
 10:     42.01   0.000224    1.13  0.001667  (-0.016118  0.017501 -0.033180)
 11:     56.49   0.000396    2.00  0.002189  (-0.034476  0.012064 -0.029241)
 12:     58.07   0.000018    0.09  0.000098  (-0.003106  0.000477 -0.009395)
 13:     68.22   0.000217    1.09  0.000991  (-0.028140 -0.013681 -0.003390)
 14:     92.96   0.000024    0.12  0.000080  ( 0.001294  0.001066  0.008791)
 15:    124.61   0.000199    1.01  0.000499  ( 0.012090 -0.013282 -0.013270)
 16:    142.67   0.000423    2.14  0.000926  (-0.026971 -0.005081 -0.013138)
 17:    160.27   0.000611    3.09  0.001189  (-0.013183  0.007700  0.030921)
 18:    182.04   0.000028    0.14  0.000048  (-0.001100  0.006803  0.000581)
 19:    189.44   0.001654    8.36  0.002725  ( 0.008043 -0.020206 -0.047454)
 20:    202.24   0.000592    2.99  0.000913  ( 0.027751  0.010644  0.005445)
 21:    216.33   0.000257    1.30  0.000370  (-0.017545  0.007529 -0.002373)
 22:    236.06   0.000026    0.13  0.000034  ( 0.000081  0.005013 -0.003026)
 23:    237.83   0.000141    0.71  0.000185  ( 0.012972 -0.001943 -0.003656)
 24:    253.33   0.000344    1.74  0.000424  ( 0.015438  0.010576 -0.008564)
 25:    262.22   0.000404    2.04  0.000481  (-0.020972  0.003143 -0.005620)
 26:    296.61   0.000358    1.81  0.000377  ( 0.016681 -0.008642 -0.004856)
 27:    303.61   0.000031    0.16  0.000032  (-0.003937  0.003300 -0.002292)
 28:    315.95   0.000088    0.45  0.000087  (-0.003373  0.006511  0.005799)
 29:    341.15   0.000209    1.05  0.000191  ( 0.008916  0.007336  0.007588)
 30:    345.29   0.000154    0.78  0.000139  ( 0.003260 -0.005242 -0.010048)
 31:    355.11   0.000223    1.13  0.000196  ( 0.013923  0.001212 -0.001019)
 32:    365.96   0.000599    3.03  0.000511  (-0.018643 -0.012771 -0.000360)
 33:    367.64   0.000352    1.78  0.000299  (-0.014655 -0.008778 -0.002681)
 34:    397.96   0.000652    3.30  0.000511  (-0.022418 -0.002066 -0.002161)
 35:    418.75   0.002257   11.41  0.001682  ( 0.039300 -0.011730  0.000085)
 36:    459.19   0.001735    8.77  0.001179  ( 0.020136 -0.020966 -0.018274)
 37:    496.09   0.000281    1.42  0.000177  ( 0.007388 -0.009648  0.005383)
 38:    509.02   0.008730   44.12  0.005352  (-0.069714  0.000419  0.022176)
 39:    538.71   0.004663   23.56  0.002701  (-0.049710  0.001353  0.015103)
 40:    545.68   0.001885    9.52  0.001078  (-0.029013  0.015037 -0.003134)
 41:    554.68   0.009724   49.14  0.005470  ( 0.001952  0.055849 -0.048451)
 42:    570.14   0.006024   30.44  0.003297  (-0.049336  0.008599  0.028091)
 43:    581.76   0.004954   25.04  0.002658  ( 0.036452 -0.010561  0.034891)
 44:    599.31   0.003687   18.63  0.001920  (-0.024534  0.006377 -0.035737)
 45:    617.64   0.012382   62.57  0.006256  ( 0.065289  0.002658 -0.044565)
 46:    632.37   0.064048  323.67  0.031607  ( 0.167243 -0.045861  0.039156)
 47:    661.45   0.001456    7.36  0.000687  ( 0.005638 -0.010573  0.023312)
 48:    686.79   0.010171   51.40  0.004622  (-0.054197 -0.008876 -0.040069)
 49:    706.15   0.001745    8.82  0.000771  (-0.021243 -0.008243  0.015873)
 50:    737.18   0.001333    6.74  0.000564  (-0.019769 -0.012381 -0.004499)
 51:    767.73   0.010091   50.99  0.004102  (-0.034254 -0.018920  0.050697)
 52:    866.75   0.003675   18.57  0.001323  (-0.027585  0.019242 -0.013857)
 53:    989.07   0.021991  111.13  0.006938  (-0.066899  0.024185 -0.043336)
 54:   1050.42   0.015434   78.00  0.004585  (-0.040843 -0.046322 -0.027774)
 55:   1067.74   0.092979  469.88  0.027175  (-0.063716 -0.147518  0.036789)
 56:   1113.00   0.025713  129.94  0.007209  (-0.037280  0.065253 -0.039519)
 57:   1115.17   0.064307  324.98  0.017995  ( 0.001690  0.127050 -0.043022)
 58:   1122.68   0.043963  222.17  0.012220  ( 0.016346  0.042091 -0.100902)
 59:   1129.93   0.007231   36.54  0.001997  ( 0.001210  0.042935  0.012331)
 60:   1134.98   0.027626  139.61  0.007596  ( 0.001296  0.072261 -0.048708)
 61:   1138.98   0.036927  186.62  0.010118  (-0.025444  0.063284  0.073927)
 62:   1144.29   0.093714  473.59  0.025557  (-0.041440 -0.074091 -0.135463)
 63:   1152.04   0.203602  1028.92  0.055152  (-0.040536  0.100732  0.208234)
 64:   1155.29   0.046084  232.89  0.012448  (-0.024100  0.082138  0.071559)
 65:   1176.36   0.012637   63.86  0.003352  ( 0.031117 -0.016848 -0.045827)
 66:   1199.77   0.001575    7.96  0.000410  ( 0.005353  0.016377 -0.010624)
 67:   1205.11   0.009283   46.91  0.002404  ( 0.034152 -0.010365  0.033616)
 68:   1255.68   0.001291    6.52  0.000321  ( 0.001668  0.015631  0.008586)
 69:   1285.42   0.001205    6.09  0.000293  (-0.006936 -0.013702 -0.007534)
 70:   1323.04   0.042487  214.71  0.010021  (-0.069717  0.051928 -0.049643)
 71:   1390.11   0.030448  153.87  0.006835  (-0.067267  0.031603  0.036215)
 72:   1403.17   0.007700   38.91  0.001713  (-0.039426  0.005791  0.011161)
 73:   1808.24   0.091812  463.98  0.015845  ( 0.037998  0.109000  0.050201)
 74:   3605.56   0.048350  244.34  0.004185  (-0.046737 -0.004274  0.044521)

--------------------------
THERMOCHEMISTRY AT 298.15K
--------------------------

Temperature         ...   298.15 K
Pressure            ...     1.00 atm
Total Mass          ...   395.07 AMU
Quasi RRHO          ...     True
Cut-Off Frequency   ...     1.00 cm^-1

Throughout the following assumptions are being made:
  (1) The electronic state is orbitally nondegenerate
      but the spin degeneracy is treated
  (2) There are no thermally accessible electronically excited states
  (3) Hindered rotations indicated by low frequency modes are not
      treated as such but are treated as vibrations and this may
      cause some error
  (4) All equations used are the standard statistical mechanics
      equations for an ideal gas
  (5) All vibrations are strictly harmonic

freq.      14.55  E(vib)   ...       0.57
freq.      23.78  E(vib)   ...       0.56
freq.      26.22  E(vib)   ...       0.56
freq.      38.92  E(vib)   ...       0.54
freq.      42.01  E(vib)   ...       0.53
freq.      56.49  E(vib)   ...       0.52
freq.      58.07  E(vib)   ...       0.51
freq.      68.22  E(vib)   ...       0.50
freq.      92.96  E(vib)   ...       0.47
freq.     124.61  E(vib)   ...       0.43
freq.     142.67  E(vib)   ...       0.41
freq.     160.27  E(vib)   ...       0.39
freq.     182.04  E(vib)   ...       0.37
freq.     189.44  E(vib)   ...       0.36
freq.     202.24  E(vib)   ...       0.35
freq.     216.33  E(vib)   ...       0.34
freq.     236.06  E(vib)   ...       0.32
freq.     237.83  E(vib)   ...       0.32
freq.     253.33  E(vib)   ...       0.30
freq.     262.22  E(vib)   ...       0.29
freq.     296.61  E(vib)   ...       0.27
freq.     303.61  E(vib)   ...       0.26
freq.     315.95  E(vib)   ...       0.25
freq.     341.15  E(vib)   ...       0.23
freq.     345.29  E(vib)   ...       0.23
freq.     355.11  E(vib)   ...       0.22
freq.     365.96  E(vib)   ...       0.22
freq.     367.64  E(vib)   ...       0.21
freq.     397.96  E(vib)   ...       0.20
freq.     418.75  E(vib)   ...       0.18
freq.     459.19  E(vib)   ...       0.16
freq.     496.09  E(vib)   ...       0.14
freq.     509.02  E(vib)   ...       0.14
freq.     538.71  E(vib)   ...       0.12
freq.     545.68  E(vib)   ...       0.12
freq.     554.68  E(vib)   ...       0.12
freq.     570.14  E(vib)   ...       0.11
freq.     581.76  E(vib)   ...       0.11
freq.     599.31  E(vib)   ...       0.10
freq.     617.64  E(vib)   ...       0.09
freq.     632.37  E(vib)   ...       0.09
freq.     661.45  E(vib)   ...       0.08
freq.     686.79  E(vib)   ...       0.07
freq.     706.15  E(vib)   ...       0.07
freq.     737.18  E(vib)   ...       0.06
freq.     767.73  E(vib)   ...       0.06
freq.     866.75  E(vib)   ...       0.04
freq.     989.07  E(vib)   ...       0.02
freq.    1050.42  E(vib)   ...       0.02
freq.    1067.74  E(vib)   ...       0.02
freq.    1113.00  E(vib)   ...       0.01
freq.    1115.17  E(vib)   ...       0.01
freq.    1122.68  E(vib)   ...       0.01
freq.    1129.93  E(vib)   ...       0.01
freq.    1134.98  E(vib)   ...       0.01
freq.    1138.98  E(vib)   ...       0.01
freq.    1144.29  E(vib)   ...       0.01
freq.    1152.04  E(vib)   ...       0.01
freq.    1155.29  E(vib)   ...       0.01
freq.    1176.36  E(vib)   ...       0.01
freq.    1199.77  E(vib)   ...       0.01
freq.    1205.11  E(vib)   ...       0.01
freq.    1255.68  E(vib)   ...       0.01
freq.    1285.42  E(vib)   ...       0.01
freq.    1323.04  E(vib)   ...       0.01
freq.    1390.11  E(vib)   ...       0.00
freq.    1403.17  E(vib)   ...       0.00
freq.    1808.24  E(vib)   ...       0.00
freq.    3605.56  E(vib)   ...       0.00

------------
INNER ENERGY
------------

The inner energy is: U= E(el) + E(ZPE) + E(vib) + E(rot) + E(trans)
    E(el)   - is the total energy from the electronic structure calculation
              = E(kin-el) + E(nuc-el) + E(el-el) + E(nuc-nuc)
    E(ZPE)  - the the zero temperature vibrational energy from the frequency calculation
    E(vib)  - the the finite temperature correction to E(ZPE) due to population
              of excited vibrational states
    E(rot)  - is the rotational thermal energy
    E(trans)- is the translational thermal energy

Summary of contributions to the inner energy U:
Electronic energy                ...  -1854.40719867 Eh
Zero point energy                ...      0.10395953 Eh      65.24 kcal/mol
Thermal vibrational correction   ...      0.02047924 Eh      12.85 kcal/mol
Thermal rotational correction    ...      0.00141627 Eh       0.89 kcal/mol
Thermal translational correction ...      0.00141627 Eh       0.89 kcal/mol
-----------------------------------------------------------------------
Total thermal energy                  -1854.27992735 Eh

Summary of corrections to the electronic energy:
(perhaps to be used in another calculation)
Total thermal correction                  0.02331178 Eh      14.63 kcal/mol
Non-thermal (ZPE) correction              0.10395953 Eh      65.24 kcal/mol
-----------------------------------------------------------------------
Total correction                          0.12727131 Eh      79.86 kcal/mol

--------
ENTHALPY
--------

The enthalpy is H = U + kB*T
                kB is Boltzmann's constant
Total thermal energy              ...  -1854.27992735 Eh
Thermal Enthalpy correction       ...      0.00094421 Eh       0.59 kcal/mol
-----------------------------------------------------------------------
Total Enthalpy                    ...  -1854.27898314 Eh

Note: Only C1 symmetry has been detected, increase convergence thresholds
      if your molecule has a higher symmetry. Symmetry factor of 1.0 is
      used for the rotational entropy correction.

Note: Rotational entropy computed according to Herzberg
Infrared and Raman Spectra, Chapter V,1, Van Nostrand Reinhold, 1945
Point Group:  C1, Symmetry Number:   1
Rotational constants in cm-1:     0.020561     0.004032     0.003960

Vibrational entropy computed according to the QRRHO of S. Grimme
Chem.Eur.J. 2012 18 9955 using a reference frequency of 100.0 cm-1

-------
ENTROPY
-------

The entropy contributions are T*S = T*(S(el)+S(vib)+S(rot)+S(trans))
     S(el)   - electronic entropy
     S(vib)  - vibrational entropy
     S(rot)  - rotational entropy
     S(trans)- translational entropy
The entropies will be listed as multiplied by the temperature to get
units of energy

Electronic entropy                ...      0.00065446 Eh      0.41 kcal/mol
Vibrational entropy               ...      0.03740688 Eh     23.47 kcal/mol

                             ****ORCA TERMINATED NORMALLY****
TOTAL RUN TIME: 0 days 0 hours 23 minutes 55 seconds 45 msec
