                         Program Version 6.0.1  -  RELEASE   -
|  1> !r2scanh def2-TZVP opt d3 TightSCF SlowConv defgrid2
|  2>
|  3> %pal
|  4> nprocs 20
|  5> end
|  6>
|  7> %scf
|  8> MaxIter 1500
|  9> end
| 10>
| 11> %maxcore 8000 #verificar
| 12>
| 13> !CPCM
| 14> %cpcm smd true
| 15> SMDsolvent "ACETONITRILE"
| 16> end
| 17>
| 18> * xyz -1 2
| 19> 6        4.790427000     -0.033865800     -0.529943200
| 20> 8        5.449345000     -1.206924000     -0.894594600
| 21> 8        4.978223000      1.323071000     -0.737377200
| 22> 6        3.506687600     -0.338741600      0.376153800
| 23> 6        2.222300000      0.400524800     -0.110681600
| 24> 6        0.900506800     -0.386389800      0.175703000
| 25> 6       -0.395261200      0.487294000      0.065549000
| 26> 6       -1.705693600     -0.364773800     -0.068373600
| 27> 6       -3.005136200      0.445344800      0.258164000
| 28> 6       -4.319880200     -0.214526000     -0.270540800
| 29> 9        3.211587400     -1.692050400      0.412735200
| 30> 9        3.741061800      0.055285800      1.689948800
| 31> 9        2.125696800      1.616867800      0.483236600
| 32> 9        2.314152400      0.589704000     -1.455769200
| 33> 9        0.794028800     -1.413561400     -0.700839000
| 34> 9        0.958350600     -0.884509000      1.435093400
| 35> 9       -0.498373400      1.260265600      1.173340200
| 36> 9       -0.299075000      1.289512600     -1.020910800
| 37> 9       -1.641790400     -1.418189000      0.779523800
| 38> 9       -1.792381400     -0.831391600     -1.336863600
| 39> 9       -3.119771000      0.573779800      1.598579800
| 40> 9       -4.383115600     -1.504377600      0.089127600
| 41> 9       -5.365669800      0.430528600      0.260394200
| 42> 9       -4.396020400     -0.128550600     -1.602941800
| 43> *
| 44>
| 45>                          ****END OF INPUT****
 Total Charge           Charge          ....   -1
 Multiplicity           Mult            ....    2
 Number of Electrons    NEL             ....  191
Dispersion correction           -0.007955869
FINAL SINGLE POINT ENERGY     -1853.048577019737
Dispersion correction             ... done (  0.0 sec)
Dispersion correction           -0.008008018
FINAL SINGLE POINT ENERGY     -1853.097398936803
Dispersion correction             ... done (  0.0 sec)
Dispersion correction           -0.008032872
FINAL SINGLE POINT ENERGY     -1853.106998223326
Dispersion correction             ... done (  0.0 sec)
FINAL SINGLE POINT ENERGY     -1853.111857816170
FINAL SINGLE POINT ENERGY     -1853.111342527119
FINAL SINGLE POINT ENERGY     -1853.113568710505
FINAL SINGLE POINT ENERGY     -1853.114618304701
FINAL SINGLE POINT ENERGY     -1853.115035357393
FINAL SINGLE POINT ENERGY     -1853.115226710966
FINAL SINGLE POINT ENERGY     -1853.115299701569
FINAL SINGLE POINT ENERGY     -1853.115353574248
FINAL SINGLE POINT ENERGY     -1853.115242987716
FINAL SINGLE POINT ENERGY     -1853.115400278326
FINAL SINGLE POINT ENERGY     -1853.115412488744
FINAL SINGLE POINT ENERGY     -1853.115425486508
FINAL SINGLE POINT ENERGY     -1853.115429084181
FINAL SINGLE POINT ENERGY     -1853.115431391843
Dispersion correction             ... done (  0.0 sec)
Dispersion correction           -0.008096931
FINAL SINGLE POINT ENERGY     -1853.115432538365
Dispersion correction             ... done (  0.0 sec)
Dispersion correction           -0.008096494
FINAL SINGLE POINT ENERGY     -1853.115433166138
Dispersion correction             ... done (  0.0 sec)
                    ***********************HURRAY********************

CARTESIAN COORDINATES (ANGSTROEM)
---------------------------------
  C      4.643923    0.307222   -0.665588
  O      5.253354   -0.555945   -1.304199
  O      4.767523    1.538713   -0.609232
  C      3.486001   -0.229666    0.255258
  C      2.094213    0.257248   -0.210564
  C      0.897003   -0.567243    0.343474
  C     -0.470045    0.170636    0.226316
  C     -1.713279   -0.762390    0.310358
  C     -2.986786   -0.010366    0.518384
  C     -4.040164    0.205068   -0.519913
  F      3.445731   -1.587951    0.293484
  F      3.666577    0.188710    1.538227
  F      1.914024    1.539959    0.156301
  F      2.048077    0.187062   -1.558293
  F      0.816407   -1.730074   -0.326211
  F      1.110906   -0.834551    1.643446
  F     -0.564695    1.064898    1.225485
  F     -0.537088    0.826295   -0.944652
  F     -1.521728   -1.618837    1.337876
  F     -1.804875   -1.462669   -0.836726
  F     -3.296580    0.301969    1.755820
  F     -4.746509   -0.908197   -0.774293
  F     -4.895620    1.138798   -0.110729
  F     -3.496173    0.595641   -1.675316

 Multiplicity           Mult            ....    2
 Number of Electrons    NEL             ....  191
 Basis Dimension        Dim             ....  744

ORBITAL ENERGIES
----------------
                 SPIN UP ORBITALS
  NO   OCC          E(Eh)            E(eV)
   0   1.0000     -24.742688      -673.2828
   1   1.0000     -24.726045      -672.8299
   2   1.0000     -24.725325      -672.8103
   3   1.0000     -24.724899      -672.7987
   4   1.0000     -24.724185      -672.7793
   5   1.0000     -24.723141      -672.7509
   6   1.0000     -24.723091      -672.7495
   7   1.0000     -24.720985      -672.6922
   8   1.0000     -24.720566      -672.6808
   9   1.0000     -24.718856      -672.6343
  10   1.0000     -24.710712      -672.4127
  11   1.0000     -24.710551      -672.4083
  12   1.0000     -24.686146      -671.7442
  13   1.0000     -24.685769      -671.7339
  14   1.0000     -19.049248      -518.3564
  15   1.0000     -19.047431      -518.3069
  16   1.0000     -10.436488      -283.9913
  17   1.0000     -10.382354      -282.5182
  18   1.0000     -10.377043      -282.3737
  19   1.0000     -10.373834      -282.2864
  20   1.0000     -10.359040      -281.8838
  21   1.0000     -10.322088      -280.8783
  22   1.0000     -10.307059      -280.4693
  23   1.0000     -10.233464      -278.4667
  24   1.0000      -1.347914       -36.6786
  25   1.0000      -1.331131       -36.2219
  26   1.0000      -1.313837       -35.7513
  27   1.0000      -1.306363       -35.5479
  28   1.0000      -1.299303       -35.3558
  29   1.0000      -1.296910       -35.2907
  30   1.0000      -1.269457       -34.5437
  31   1.0000      -1.262409       -34.3519
  32   1.0000      -1.258647       -34.2495
  33   1.0000      -1.253013       -34.0962
  34   1.0000      -1.252294       -34.0767
  35   1.0000      -1.248670       -33.9780
  36   1.0000      -1.238991       -33.7147
  37   1.0000      -1.210922       -32.9509
  38   1.0000      -1.028960       -27.9994
  39   1.0000      -0.944609       -25.7041
  40   1.0000      -0.851180       -23.1618
  41   1.0000      -0.823712       -22.4143
  42   1.0000      -0.788310       -21.4510
  43   1.0000      -0.749751       -20.4018
  44   1.0000      -0.706975       -19.2378
  45   1.0000      -0.670348       -18.2411
  46   1.0000      -0.660599       -17.9758
  47   1.0000      -0.629432       -17.1277
  48   1.0000      -0.625410       -17.0183
  49   1.0000      -0.623244       -16.9593
  50   1.0000      -0.613187       -16.6857
  51   1.0000      -0.609613       -16.5884
  52   1.0000      -0.608247       -16.5512
  53   1.0000      -0.593512       -16.1503
  54   1.0000      -0.590263       -16.0619
  55   1.0000      -0.584251       -15.8983
  56   1.0000      -0.573472       -15.6050
  57   1.0000      -0.568101       -15.4588
  58   1.0000      -0.563775       -15.3411
  59   1.0000      -0.554444       -15.0872
  60   1.0000      -0.539783       -14.6882
  61   1.0000      -0.522066       -14.2061
  62   1.0000      -0.491110       -13.3638
  63   1.0000      -0.489095       -13.3089
  64   1.0000      -0.485681       -13.2160
  65   1.0000      -0.480707       -13.0807
  66   1.0000      -0.477239       -12.9863
  67   1.0000      -0.473880       -12.8949
  68   1.0000      -0.470481       -12.8024
  69   1.0000      -0.466522       -12.6947
  70   1.0000      -0.460621       -12.5341
  71   1.0000      -0.455287       -12.3890
  72   1.0000      -0.451863       -12.2958
  73   1.0000      -0.449526       -12.2322
  74   1.0000      -0.446304       -12.1445
  75   1.0000      -0.441741       -12.0204
  76   1.0000      -0.439685       -11.9644
  77   1.0000      -0.435572       -11.8525
  78   1.0000      -0.431666       -11.7462
  79   1.0000      -0.427115       -11.6224
  80   1.0000      -0.423583       -11.5263
  81   1.0000      -0.420073       -11.4308
  82   1.0000      -0.419106       -11.4045
  83   1.0000      -0.417776       -11.3683
  84   1.0000      -0.410590       -11.1727
  85   1.0000      -0.403080       -10.9684
  86   1.0000      -0.397674       -10.8212
  87   1.0000      -0.391696       -10.6586
  88   1.0000      -0.387799       -10.5526
  89   1.0000      -0.375332       -10.2133
  90   1.0000      -0.364780        -9.9262
  91   1.0000      -0.327813        -8.9202
  92   1.0000      -0.266170        -7.2429
  93   1.0000      -0.241613        -6.5746
  94   1.0000      -0.225315        -6.1311
  95   1.0000      -0.223166        -6.0726
  96   0.0000      -0.001976        -0.0538
  97   0.0000       0.007702         0.2096
  98   0.0000       0.021984         0.5982
  99   0.0000       0.049697         1.3523
 100   0.0000       0.073710         2.0058

                 SPIN DOWN ORBITALS
  NO   OCC          E(Eh)            E(eV)
   0   1.0000     -24.737373      -673.1381
   1   1.0000     -24.726024      -672.8293
   2   1.0000     -24.725283      -672.8092
   3   1.0000     -24.724523      -672.7885
   4   1.0000     -24.723938      -672.7725
   5   1.0000     -24.722474      -672.7327
   6   1.0000     -24.722136      -672.7235
   7   1.0000     -24.720991      -672.6924
   8   1.0000     -24.720555      -672.6805
   9   1.0000     -24.717199      -672.5892
  10   1.0000     -24.710717      -672.4128
  11   1.0000     -24.710548      -672.4082
  12   1.0000     -24.686142      -671.7441
  13   1.0000     -24.685770      -671.7340
  14   1.0000     -19.049228      -518.3559
  15   1.0000     -19.047427      -518.3069
  16   1.0000     -10.437355      -284.0149
  17   1.0000     -10.383442      -282.5478
  18   1.0000     -10.376372      -282.3554
  19   1.0000     -10.373729      -282.2835
  20   1.0000     -10.358993      -281.8825
  21   1.0000     -10.322067      -280.8777
  22   1.0000     -10.289978      -280.0045
  23   1.0000     -10.233460      -278.4666
  24   1.0000      -1.346329       -36.6355
  25   1.0000      -1.330636       -36.2084
  26   1.0000      -1.312637       -35.7187
  27   1.0000      -1.305568       -35.5263
  28   1.0000      -1.297092       -35.2957
  29   1.0000      -1.291000       -35.1299
  30   1.0000      -1.269448       -34.5434
  31   1.0000      -1.261904       -34.3382
  32   1.0000      -1.257729       -34.2245
  33   1.0000      -1.251519       -34.0556
  34   1.0000      -1.250424       -34.0258
  35   1.0000      -1.248221       -33.9658
  36   1.0000      -1.238989       -33.7146
  37   1.0000      -1.210920       -32.9508
  38   1.0000      -1.028941       -27.9989
  39   1.0000      -0.944587       -25.7035
  40   1.0000      -0.838659       -22.8211
  41   1.0000      -0.815288       -22.1851
  42   1.0000      -0.782698       -21.2983
  43   1.0000      -0.748311       -20.3626
  44   1.0000      -0.703518       -19.1437
  45   1.0000      -0.664624       -18.0853
  46   1.0000      -0.660003       -17.9596
  47   1.0000      -0.627786       -17.0829
  48   1.0000      -0.621314       -16.9068
  49   1.0000      -0.621094       -16.9008
  50   1.0000      -0.612723       -16.6730
  51   1.0000      -0.607271       -16.5247
  52   1.0000      -0.605404       -16.4739
  53   1.0000      -0.592557       -16.1243
  54   1.0000      -0.589384       -16.0379
  55   1.0000      -0.582720       -15.8566
  56   1.0000      -0.572813       -15.5870
  57   1.0000      -0.566617       -15.4184
  58   1.0000      -0.563291       -15.3279
  59   1.0000      -0.553883       -15.0719
  60   1.0000      -0.539773       -14.6880
  61   1.0000      -0.491833       -13.3835
  62   1.0000      -0.489552       -13.3214
  63   1.0000      -0.487368       -13.2620
  64   1.0000      -0.483765       -13.1639
  65   1.0000      -0.478868       -13.0307
  66   1.0000      -0.476448       -12.9648
  67   1.0000      -0.471632       -12.8338
  68   1.0000      -0.468064       -12.7367
  69   1.0000      -0.465229       -12.6595
  70   1.0000      -0.459422       -12.5015
  71   1.0000      -0.454979       -12.3806
  72   1.0000      -0.451409       -12.2835
  73   1.0000      -0.446664       -12.1543
  74   1.0000      -0.444157       -12.0861
  75   1.0000      -0.441097       -12.0029
  76   1.0000      -0.437221       -11.8974
  77   1.0000      -0.434618       -11.8266
  78   1.0000      -0.430999       -11.7281
  79   1.0000      -0.426554       -11.6071
  80   1.0000      -0.423085       -11.5127
  81   1.0000      -0.419298       -11.4097
  82   1.0000      -0.418126       -11.3778
  83   1.0000      -0.417371       -11.3572
  84   1.0000      -0.409076       -11.1315
  85   1.0000      -0.401314       -10.9203
  86   1.0000      -0.397657       -10.8208
  87   1.0000      -0.389775       -10.6063
  88   1.0000      -0.387548       -10.5457
  89   1.0000      -0.375317       -10.2129
  90   1.0000      -0.362371        -9.8606
  91   1.0000      -0.325985        -8.8705
  92   1.0000      -0.241601        -6.5743
  93   1.0000      -0.225324        -6.1314
  94   1.0000      -0.223234        -6.0745
  95   0.0000      -0.121278        -3.3002
  96   0.0000       0.000373         0.0101
  97   0.0000       0.011408         0.3104
  98   0.0000       0.026905         0.7321
  99   0.0000       0.053290         1.4501

MULLIKEN ATOMIC CHARGES AND SPIN POPULATIONS
--------------------------------------------
   0 C :    0.212382    0.000178
   1 O :   -0.508662    0.000584
   2 O :   -0.523361    0.000109
   3 C :    0.343211    0.000566
   4 C :    0.300572    0.001942
   5 C :    0.321867    0.004616
   6 C :    0.301128    0.029662
   7 C :    0.386872   -0.020480
   8 C :    0.137305    0.846812
   9 C :    0.490195   -0.023527
  10 F :   -0.207331   -0.000007
  11 F :   -0.213859    0.000089
  12 F :   -0.179764    0.000019
  13 F :   -0.186639    0.000093
  14 F :   -0.172724   -0.000114
  15 F :   -0.172098    0.000232
  16 F :   -0.172140    0.000452
  17 F :   -0.172689    0.000264
  18 F :   -0.171648    0.016593
  19 F :   -0.170949    0.005986
  20 F :   -0.143321    0.093757
  21 F :   -0.170087    0.027973
  22 F :   -0.162520    0.004030
  23 F :   -0.165741    0.010171
Sum of atomic charges         :   -1.0000000

LOEWDIN ATOMIC CHARGES AND SPIN POPULATIONS
-------------------------------------------
   0 C :   -0.696601    0.000216
   1 O :   -0.047814    0.000516
   2 O :   -0.054930    0.000097
   3 C :   -0.451042    0.000711
   4 C :   -0.468671    0.001656
   5 C :   -0.469544    0.004663
   6 C :   -0.466579    0.022552
   7 C :   -0.492124    0.059318
   8 C :   -0.172088    0.669953
   9 C :   -0.682487    0.055545
  10 F :    0.170866   -0.000018
  11 F :    0.163128    0.000094
  12 F :    0.215688   -0.000063
  13 F :    0.209893    0.000096
  14 F :    0.221691   -0.000094
  15 F :    0.222150    0.000293
  16 F :    0.225813    0.001261
  17 F :    0.226948    0.000822
  18 F :    0.215851    0.016530
  19 F :    0.222756    0.006582
  20 F :    0.266598    0.110695
  21 F :    0.200844    0.030721
  22 F :    0.223909    0.005068
  23 F :    0.215744    0.012786

  Mayer bond orders larger than 0.100000
B(  0-C ,  1-O ) :   1.8537 B(  0-C ,  2-O ) :   1.8248 B(  0-C ,  3-C ) :   0.8377
B(  3-C ,  4-C ) :   0.9313 B(  3-C , 10-F ) :   1.0354 B(  3-C , 11-F ) :   1.0256
B(  4-C ,  5-C ) :   0.9189 B(  4-C , 12-F ) :   1.0631 B(  4-C , 13-F ) :   1.0574
B(  5-C ,  6-C ) :   0.9284 B(  5-C , 14-F ) :   1.0705 B(  5-C , 15-F ) :   1.0794
B(  6-C ,  7-C ) :   0.9357 B(  6-C , 16-F ) :   1.0734 B(  6-C , 17-F ) :   1.0773
B(  7-C ,  8-C ) :   0.9850 B(  7-C , 18-F ) :   1.0673 B(  7-C , 19-F ) :   1.0813
B(  8-C ,  9-C ) :   1.0454 B(  8-C , 20-F ) :   1.1221 B(  9-C , 21-F ) :   1.1181
B(  9-C , 22-F ) :   1.1284 B(  9-C , 23-F ) :   1.1196

Dispersion correction           -0.008096491
FINAL SINGLE POINT ENERGY     -1853.115433309703

DIPOLE MOMENT
-------------

Method             : SCF
Type of density    : Electron Density
Multiplicity       :   2
Irrep              :   0
Energy             : -1853.1073368189695429 Eh
Relativity type    :
Basis              : AO
                                X                 Y                 Z
Electronic contribution:    -16.951370080      -1.711848386       2.985058534
Nuclear contribution   :      8.546269783       0.978249622      -1.453834839
                        -----------------------------------------
Total Dipole Moment    :     -8.405100297      -0.733598764       1.531223695
                        -----------------------------------------
Magnitude (a.u.)       :      8.574877501
Magnitude (Debye)      :     21.795606482

Rotational constants in cm-1:             0.020965             0.004133             0.004054
Rotational constants in MHz :           628.501585           123.894179           121.537615

                             ****ORCA TERMINATED NORMALLY****
TOTAL RUN TIME: 0 days 0 hours 29 minutes 4 seconds 642 msec
