                         Program Version 6.0.1  -  RELEASE   -
|  1> !TPSSh def2-TZVP opt d3 TightSCF SlowConv defgrid2
|  2>
|  3> %pal
|  4> nprocs 20
|  5> end
|  6>
|  7> %scf
|  8> MaxIter 1500
|  9> end
| 10>
| 11> %maxcore 8000
| 12>
| 13> !CPCM
| 14> %cpcm smd true
| 15> SMDsolvent "ACETONITRILE"
| 16> end
| 17>
| 18> * xyz -2 2
| 19> 6        4.790427000     -0.033865800     -0.529943200
| 20> 8        5.449345000     -1.206924000     -0.894594600
| 21> 8        4.978223000      1.323071000     -0.737377200
| 22> 6        3.506687600     -0.338741600      0.376153800
| 23> 6        2.222300000      0.400524800     -0.110681600
| 24> 6        0.900506800     -0.386389800      0.175703000
| 25> 6       -0.395261200      0.487294000      0.065549000
| 26> 6       -1.705693600     -0.364773800     -0.068373600
| 27> 6       -3.005136200      0.445344800      0.258164000
| 28> 6       -4.319880200     -0.214526000     -0.270540800
| 29> 9        3.211587400     -1.692050400      0.412735200
| 30> 9        3.741061800      0.055285800      1.689948800
| 31> 9        2.125696800      1.616867800      0.483236600
| 32> 9        2.314152400      0.589704000     -1.455769200
| 33> 9        0.794028800     -1.413561400     -0.700839000
| 34> 9        0.958350600     -0.884509000      1.435093400
| 35> 9       -0.498373400      1.260265600      1.173340200
| 36> 9       -0.299075000      1.289512600     -1.020910800
| 37> 9       -1.641790400     -1.418189000      0.779523800
| 38> 9       -1.792381400     -0.831391600     -1.336863600
| 39> 9       -2.918792200      1.679227200     -0.295171200
| 40> 9       -3.119771000      0.573779800      1.598579800
| 41> 9       -4.383115600     -1.504377600      0.089127600
| 42> 9       -5.365669800      0.430528600      0.260394200
| 43> 9       -4.396020400     -0.128550600     -1.602941800
| 44> *
| 45>
| 46>                          ****END OF INPUT****
 Total Charge           Charge          ....   -2
 Multiplicity           Mult            ....    2
 Number of Electrons    NEL             ....  201
Dispersion correction           -0.030415464
FINAL SINGLE POINT ENERGY     -1953.865949291315
Dispersion correction             ... done (  0.0 sec)
Dispersion correction           -0.030245072
FINAL SINGLE POINT ENERGY     -1953.900845486637
Dispersion correction             ... done (  0.0 sec)
Dispersion correction           -0.029944947
FINAL SINGLE POINT ENERGY     -1953.921460974029
Dispersion correction             ... done (  0.0 sec)
FINAL SINGLE POINT ENERGY     -1953.928108657101
FINAL SINGLE POINT ENERGY     -1953.930513544374
FINAL SINGLE POINT ENERGY     -1953.930503026298
FINAL SINGLE POINT ENERGY     -1953.934211096342
FINAL SINGLE POINT ENERGY     -1953.934850800445
FINAL SINGLE POINT ENERGY     -1953.935457963768
FINAL SINGLE POINT ENERGY     -1953.935766690579
FINAL SINGLE POINT ENERGY     -1953.935852164320
FINAL SINGLE POINT ENERGY     -1953.935894769665
Dispersion correction             ... done (  0.0 sec)
Dispersion correction           -0.029395171
FINAL SINGLE POINT ENERGY     -1953.935903977368
Dispersion correction             ... done (  0.0 sec)
Dispersion correction           -0.029395815
FINAL SINGLE POINT ENERGY     -1953.935907503462
Dispersion correction             ... done (  0.0 sec)
                    ***********************HURRAY********************

CARTESIAN COORDINATES (ANGSTROEM)
---------------------------------
  C      4.998807    0.209001   -0.291898
  O      5.467221   -0.272632   -1.340122
  O      5.375721    1.170379    0.407391
  C      3.689726   -0.486996    0.243441
  C      2.386567    0.311254   -0.056249
  C      1.005348   -0.412883    0.039039
  C     -0.358393    0.357313    0.031661
  C     -1.823022   -0.243556   -0.009736
  C     -3.209270    0.489358   -0.013729
  C     -4.585261   -0.212163   -0.050291
  F      3.536911   -1.744599   -0.291117
  F      3.760308   -0.668837    1.605260
  F      2.352936    1.378652    0.798445
  F      2.493138    0.808936   -1.327616
  F      0.957832   -1.288074   -1.022377
  F      1.026362   -1.147509    1.203178
  F     -0.338705    1.147297    1.171492
  F     -0.293570    1.181801   -1.089739
  F     -1.883213   -1.073560    1.112225
  F     -1.848675   -1.027053   -1.160874
  F     -3.209759    1.315159   -1.121504
  F     -3.243127    1.270069    1.124810
  F     -4.744794   -1.009254    1.021677
  F     -5.654481    0.646857   -0.051208
  F     -4.707200   -0.965406   -1.158615

 Multiplicity           Mult            ....    2
 Number of Electrons    NEL             ....  201
 Basis Dimension        Dim             ....  775

ORBITAL ENERGIES
----------------
                 SPIN UP ORBITALS
  NO   OCC          E(Eh)            E(eV)
   0   1.0000     -24.634076      -670.3273
   1   1.0000     -24.633982      -670.3247
   2   1.0000     -24.624554      -670.0682
   3   1.0000     -24.614981      -669.8077
   4   1.0000     -24.614253      -669.7879
   5   1.0000     -24.613890      -669.7780
   6   1.0000     -24.612653      -669.7443
   7   1.0000     -24.611228      -669.7056
   8   1.0000     -24.609175      -669.6497
   9   1.0000     -24.600890      -669.4243
  10   1.0000     -24.600448      -669.4122
  11   1.0000     -24.599933      -669.3982
  12   1.0000     -24.599491      -669.3862
  13   1.0000     -24.599396      -669.3836
  14   1.0000     -24.598085      -669.3479
  15   1.0000     -18.977623      -516.4074
  16   1.0000     -18.976639      -516.3806
  17   1.0000     -10.358102      -281.8583
  18   1.0000     -10.288292      -279.9587
  19   1.0000     -10.286950      -279.9221
  20   1.0000     -10.283638      -279.8320
  21   1.0000     -10.272911      -279.5401
  22   1.0000     -10.272636      -279.5326
  23   1.0000     -10.262627      -279.2603
  24   1.0000     -10.178546      -276.9723
  25   1.0000      -1.285180       -34.9715
  26   1.0000      -1.243424       -33.8353
  27   1.0000      -1.231422       -33.5087
  28   1.0000      -1.224363       -33.3166
  29   1.0000      -1.214293       -33.0426
  30   1.0000      -1.212102       -32.9830
  31   1.0000      -1.204913       -32.7874
  32   1.0000      -1.202314       -32.7166
  33   1.0000      -1.191696       -32.4277
  34   1.0000      -1.182896       -32.1882
  35   1.0000      -1.178138       -32.0588
  36   1.0000      -1.172251       -31.8986
  37   1.0000      -1.164100       -31.6768
  38   1.0000      -1.158917       -31.5357
  39   1.0000      -1.157008       -31.4838
  40   1.0000      -0.985329       -26.8122
  41   1.0000      -0.903103       -24.5747
  42   1.0000      -0.765312       -20.8252
  43   1.0000      -0.759790       -20.6749
  44   1.0000      -0.730116       -19.8675
  45   1.0000      -0.698266       -19.0008
  46   1.0000      -0.659714       -17.9517
  47   1.0000      -0.627961       -17.0877
  48   1.0000      -0.605021       -16.4635
  49   1.0000      -0.574983       -15.6461
  50   1.0000      -0.572996       -15.5920
  51   1.0000      -0.571627       -15.5547
  52   1.0000      -0.560384       -15.2488
  53   1.0000      -0.554990       -15.1020
  54   1.0000      -0.552483       -15.0338
  55   1.0000      -0.539425       -14.6785
  56   1.0000      -0.536016       -14.5857
  57   1.0000      -0.528030       -14.3684
  58   1.0000      -0.526420       -14.3246
  59   1.0000      -0.519536       -14.1373
  60   1.0000      -0.512330       -13.9412
  61   1.0000      -0.507591       -13.8123
  62   1.0000      -0.502091       -13.6626
  63   1.0000      -0.494285       -13.4502
  64   1.0000      -0.445807       -12.1310
  65   1.0000      -0.445773       -12.1301
  66   1.0000      -0.439905       -11.9704
  67   1.0000      -0.431655       -11.7459
  68   1.0000      -0.428650       -11.6641
  69   1.0000      -0.426359       -11.6018
  70   1.0000      -0.421009       -11.4562
  71   1.0000      -0.419012       -11.4019
  72   1.0000      -0.416252       -11.3268
  73   1.0000      -0.415245       -11.2994
  74   1.0000      -0.413103       -11.2411
  75   1.0000      -0.409040       -11.1305
  76   1.0000      -0.406232       -11.0541
  77   1.0000      -0.400037       -10.8856
  78   1.0000      -0.399222       -10.8634
  79   1.0000      -0.394282       -10.7289
  80   1.0000      -0.388182       -10.5630
  81   1.0000      -0.387246       -10.5375
  82   1.0000      -0.386913       -10.5284
  83   1.0000      -0.380826       -10.3628
  84   1.0000      -0.378631       -10.3031
  85   1.0000      -0.376568       -10.2469
  86   1.0000      -0.373009       -10.1501
  87   1.0000      -0.370599       -10.0845
  88   1.0000      -0.367201        -9.9921
  89   1.0000      -0.366776        -9.9805
  90   1.0000      -0.364046        -9.9062
  91   1.0000      -0.361327        -9.8322
  92   1.0000      -0.353021        -9.6062
  93   1.0000      -0.352013        -9.5788
  94   1.0000      -0.342449        -9.3185
  95   1.0000      -0.320449        -8.7199
  96   1.0000      -0.290463        -7.9039
  97   1.0000      -0.222379        -6.0513
  98   1.0000      -0.208853        -5.6832
  99   1.0000      -0.204755        -5.5717
 100   1.0000      -0.070524        -1.9190
 101   0.0000       0.017747         0.4829
 102   0.0000       0.033176         0.9028
 103   0.0000       0.046122         1.2550
 104   0.0000       0.063374         1.7245
 105   0.0000       0.087893         2.3917

                 SPIN DOWN ORBITALS
  NO   OCC          E(Eh)            E(eV)
   0   1.0000     -24.634049      -670.3266
   1   1.0000     -24.633956      -670.3240
   2   1.0000     -24.623229      -670.0321
   3   1.0000     -24.614944      -669.8067
   4   1.0000     -24.613892      -669.7780
   5   1.0000     -24.613511      -669.7677
   6   1.0000     -24.612544      -669.7414
   7   1.0000     -24.611031      -669.7002
   8   1.0000     -24.608929      -669.6430
   9   1.0000     -24.600455      -669.4124
  10   1.0000     -24.599908      -669.3975
  11   1.0000     -24.599452      -669.3851
  12   1.0000     -24.599362      -669.3827
  13   1.0000     -24.598908      -669.3703
  14   1.0000     -24.598024      -669.3463
  15   1.0000     -18.977450      -516.4027
  16   1.0000     -18.976499      -516.3768
  17   1.0000     -10.356307      -281.8094
  18   1.0000     -10.285803      -279.8909
  19   1.0000     -10.285548      -279.8840
  20   1.0000     -10.281375      -279.7704
  21   1.0000     -10.269013      -279.4341
  22   1.0000     -10.268888      -279.4306
  23   1.0000     -10.262119      -279.2465
  24   1.0000     -10.178388      -276.9680
  25   1.0000      -1.284186       -34.9445
  26   1.0000      -1.242625       -33.8135
  27   1.0000      -1.229972       -33.4692
  28   1.0000      -1.223526       -33.2938
  29   1.0000      -1.213912       -33.0322
  30   1.0000      -1.210939       -32.9513
  31   1.0000      -1.204753       -32.7830
  32   1.0000      -1.200829       -32.6762
  33   1.0000      -1.189669       -32.3725
  34   1.0000      -1.182456       -32.1763
  35   1.0000      -1.177270       -32.0351
  36   1.0000      -1.171743       -31.8848
  37   1.0000      -1.163101       -31.6496
  38   1.0000      -1.158768       -31.5317
  39   1.0000      -1.155970       -31.4555
  40   1.0000      -0.985025       -26.8039
  41   1.0000      -0.902802       -24.5665
  42   1.0000      -0.758080       -20.6284
  43   1.0000      -0.752675       -20.4813
  44   1.0000      -0.722639       -19.6640
  45   1.0000      -0.692365       -18.8402
  46   1.0000      -0.656244       -17.8573
  47   1.0000      -0.625901       -17.0316
  48   1.0000      -0.603105       -16.4113
  49   1.0000      -0.573836       -15.6149
  50   1.0000      -0.569383       -15.4937
  51   1.0000      -0.567719       -15.4484
  52   1.0000      -0.558456       -15.1964
  53   1.0000      -0.551926       -15.0187
  54   1.0000      -0.550685       -14.9849
  55   1.0000      -0.537383       -14.6229
  56   1.0000      -0.532280       -14.4841
  57   1.0000      -0.526148       -14.3172
  58   1.0000      -0.523373       -14.2417
  59   1.0000      -0.518267       -14.1028
  60   1.0000      -0.511092       -13.9075
  61   1.0000      -0.503125       -13.6907
  62   1.0000      -0.499673       -13.5968
  63   1.0000      -0.493162       -13.4196
  64   1.0000      -0.445314       -12.1176
  65   1.0000      -0.443701       -12.0737
  66   1.0000      -0.439075       -11.9478
  67   1.0000      -0.431153       -11.7323
  68   1.0000      -0.427939       -11.6448
  69   1.0000      -0.426023       -11.5927
  70   1.0000      -0.420499       -11.4424
  71   1.0000      -0.418150       -11.3785
  72   1.0000      -0.415354       -11.3023
  73   1.0000      -0.414274       -11.2730
  74   1.0000      -0.412473       -11.2240
  75   1.0000      -0.408035       -11.1032
  76   1.0000      -0.405462       -11.0332
  77   1.0000      -0.398972       -10.8566
  78   1.0000      -0.398183       -10.8351
  79   1.0000      -0.393710       -10.7134
  80   1.0000      -0.387210       -10.5365
  81   1.0000      -0.386419       -10.5150
  82   1.0000      -0.386274       -10.5110
  83   1.0000      -0.379916       -10.3380
  84   1.0000      -0.377633       -10.2759
  85   1.0000      -0.376060       -10.2331
  86   1.0000      -0.371323       -10.1042
  87   1.0000      -0.367588       -10.0026
  88   1.0000      -0.365778        -9.9533
  89   1.0000      -0.364405        -9.9160
  90   1.0000      -0.363360        -9.8875
  91   1.0000      -0.358919        -9.7667
  92   1.0000      -0.351415        -9.5625
  93   1.0000      -0.347612        -9.4590
  94   1.0000      -0.337897        -9.1946
  95   1.0000      -0.317450        -8.6382
  96   1.0000      -0.289530        -7.8785
  97   1.0000      -0.221679        -6.0322
  98   1.0000      -0.208124        -5.6633
  99   1.0000      -0.204558        -5.5663
 100   0.0000      -0.013850        -0.3769
 101   0.0000       0.026281         0.7151
 102   0.0000       0.041891         1.1399
 103   0.0000       0.054400         1.4803
 104   0.0000       0.072437         1.9711

MULLIKEN ATOMIC CHARGES AND SPIN POPULATIONS
--------------------------------------------
   0 C :    0.166816    0.007597
   1 O :   -0.499533    0.005084
   2 O :   -0.507072    0.004360
   3 C :    0.307303    0.023267
   4 C :    0.247798    0.059250
   5 C :    0.254749    0.135496
   6 C :    0.221592    0.246840
   7 C :    0.195643    0.265842
   8 C :    0.251109    0.155327
   9 C :    0.376226    0.086171
  10 F :   -0.209765   -0.000061
  11 F :   -0.213918   -0.000041
  12 F :   -0.193432   -0.000210
  13 F :   -0.197492   -0.000806
  14 F :   -0.202424   -0.000928
  15 F :   -0.204208   -0.001488
  16 F :   -0.217355   -0.000543
  17 F :   -0.222799   -0.000210
  18 F :   -0.226465    0.000954
  19 F :   -0.222383    0.000635
  20 F :   -0.201757    0.000716
  21 F :   -0.201199    0.000615
  22 F :   -0.162154   -0.001465
  23 F :   -0.177001    0.015082
  24 F :   -0.162282   -0.001482
Sum of atomic charges         :   -2.0000000

LOEWDIN ATOMIC CHARGES AND SPIN POPULATIONS
-------------------------------------------
   0 C :   -0.694188    0.008585
   1 O :   -0.066138    0.005101
   2 O :   -0.068612    0.004290
   3 C :   -0.441037    0.025695
   4 C :   -0.459844    0.059026
   5 C :   -0.469982    0.127202
   6 C :   -0.475754    0.211031
   7 C :   -0.474349    0.230561
   8 C :   -0.482888    0.160877
   9 C :   -0.655380    0.072355
  10 F :    0.144748    0.001064
  11 F :    0.140981    0.000885
  12 F :    0.174243    0.001915
  13 F :    0.174186    0.001074
  14 F :    0.156386    0.004717
  15 F :    0.157735    0.003954
  16 F :    0.133680    0.008786
  17 F :    0.125449    0.009208
  18 F :    0.119476    0.011165
  19 F :    0.125622    0.010566
  20 F :    0.149832    0.007174
  21 F :    0.150990    0.006899
  22 F :    0.193834    0.000999
  23 F :    0.147431    0.025905
  24 F :    0.193579    0.000964

  Mayer bond orders larger than 0.100000
B(  0-C ,  1-O ) :   1.8598 B(  0-C ,  2-O ) :   1.8490 B(  0-C ,  3-C ) :   0.8535
B(  3-C ,  4-C ) :   0.9205 B(  3-C , 10-F ) :   1.0501 B(  3-C , 11-F ) :   1.0369
B(  4-C ,  5-C ) :   0.9026 B(  4-C , 12-F ) :   1.0644 B(  4-C , 13-F ) :   1.0513
B(  5-C ,  6-C ) :   0.9078 B(  5-C , 14-F ) :   1.0368 B(  5-C , 15-F ) :   1.0358
B(  6-C ,  7-C ) :   0.9052 B(  6-C , 16-F ) :   1.0081 B(  6-C , 17-F ) :   0.9974
B(  7-C ,  8-C ) :   0.9222 B(  7-C , 18-F ) :   0.9946 B(  7-C , 19-F ) :   0.9994
B(  8-C ,  9-C ) :   0.9675 B(  8-C , 20-F ) :   1.0311 B(  8-C , 21-F ) :   1.0311
B(  9-C , 22-F ) :   1.1474 B(  9-C , 23-F ) :   1.0912 B(  9-C , 24-F ) :   1.1468

Dispersion correction           -0.029394859
FINAL SINGLE POINT ENERGY     -1953.935908772140

DIPOLE MOMENT
-------------

Method             : SCF
Type of density    : Electron Density
Multiplicity       :   2
Irrep              :   0
Energy             : -1953.9065139128661031 Eh
Relativity type    :
Basis              : AO
                                X                 Y                 Z
Electronic contribution:    -17.565514452      -1.588752056       1.387223028
Nuclear contribution   :     10.238732365       0.839428191      -0.793275867
                        -----------------------------------------
Total Dipole Moment    :     -7.326782087      -0.749323865       0.593947161
                        -----------------------------------------
Magnitude (a.u.)       :      7.388910287
Magnitude (Debye)      :     18.781117390

Rotational constants in cm-1:             0.021720             0.003356             0.003329
Rotational constants in MHz :           651.154770           100.599307            99.793397

                             ****ORCA TERMINATED NORMALLY****
TOTAL RUN TIME: 0 days 0 hours 26 minutes 12 seconds 792 msec
