                         Program Version 6.0.1  -  RELEASE   -
|  1> !TPSSh def2-TZVP freq d3 TightSCF SlowConv defgrid2
|  2>
|  3> %pal
|  4> nprocs 20
|  5> end
|  6>
|  7> %scf
|  8> MaxIter 1500
|  9> end
| 10>
| 11> %maxcore 8000
| 12>
| 13> !CPCM
| 14> %cpcm smd true
| 15> SMDsolvent "ACETONITRILE"
| 16> end
| 17>
| 18> * xyz -1 1
| 19> 6        4.819689000      0.122433000     -0.410253000
| 20> 8        5.422011000     -0.749026000     -1.055706000
| 21> 8        5.044207000      1.334059000     -0.234009000
| 22> 6        3.519020000     -0.372095000      0.343233000
| 23> 6        2.221395000      0.292536000     -0.194186000
| 24> 6        0.891813000     -0.445273000      0.176639000
| 25> 6       -0.389097000      0.445759000      0.020841000
| 26> 6       -1.720318000     -0.378061000     -0.049208000
| 27> 6       -2.995743000      0.475133000      0.264966000
| 28> 6       -4.330226000     -0.161015000     -0.241619000
| 29> 9        3.345455000     -1.727181000      0.247294000
| 30> 9        3.610616000     -0.091076000      1.682746000
| 31> 9        2.132586000      1.563247000      0.267403000
| 32> 9        2.296524000      0.338124000     -1.551017000
| 33> 9        0.755135000     -1.533950000     -0.615203000
| 34> 9        0.955085000     -0.855187000      1.463421000
| 35> 9       -0.460282000      1.285473000      1.077691000
| 36> 9       -0.290787000      1.178631000     -1.109156000
| 37> 9       -1.665295000     -1.391443000      0.841499000
| 38> 9       -1.841689000     -0.900860000     -1.288759000
| 39> 9       -2.883307000      1.691891000     -0.310368000
| 40> 9       -3.094012000      0.633572000      1.599809000
| 41> 9       -4.415553000     -1.443160000      0.128982000
| 42> 9       -5.358594000      0.507380000      0.289730000
| 43> 9       -4.417226000     -0.086351000     -1.571226000
| 44> *
| 45>
| 46>                          ****END OF INPUT****

CARTESIAN COORDINATES (ANGSTROEM)
---------------------------------
  C      4.819689    0.122433   -0.410253
  O      5.422011   -0.749026   -1.055706
  O      5.044207    1.334059   -0.234009
  C      3.519020   -0.372095    0.343233
  C      2.221395    0.292536   -0.194186
  C      0.891813   -0.445273    0.176639
  C     -0.389097    0.445759    0.020841
  C     -1.720318   -0.378061   -0.049208
  C     -2.995743    0.475133    0.264966
  C     -4.330226   -0.161015   -0.241619
  F      3.345455   -1.727181    0.247294
  F      3.610616   -0.091076    1.682746
  F      2.132586    1.563247    0.267403
  F      2.296524    0.338124   -1.551017
  F      0.755135   -1.533950   -0.615203
  F      0.955085   -0.855187    1.463421
  F     -0.460282    1.285473    1.077691
  F     -0.290787    1.178631   -1.109156
  F     -1.665295   -1.391443    0.841499
  F     -1.841689   -0.900860   -1.288759
  F     -2.883307    1.691891   -0.310368
  F     -3.094012    0.633572    1.599809
  F     -4.415553   -1.443160    0.128982
  F     -5.358594    0.507380    0.289730
  F     -4.417226   -0.086351   -1.571226

 Total Charge           Charge          ....   -1
 Multiplicity           Mult            ....    1
 Number of Electrons    NEL             ....  200
 Basis Dimension        Dim             ....  775

ORBITAL ENERGIES
----------------

  NO   OCC          E(Eh)            E(eV)
   0   2.0000     -24.660514      -671.0467
   1   2.0000     -24.659481      -671.0186
   2   2.0000     -24.659331      -671.0145
   3   2.0000     -24.658968      -671.0046
   4   2.0000     -24.658922      -671.0034
   5   2.0000     -24.658905      -671.0029
   6   2.0000     -24.658195      -670.9836
   7   2.0000     -24.656037      -670.9249
   8   2.0000     -24.656011      -670.9242
   9   2.0000     -24.650551      -670.7756
  10   2.0000     -24.649792      -670.7549
  11   2.0000     -24.638922      -670.4591
  12   2.0000     -24.638771      -670.4550
  13   2.0000     -24.614289      -669.7889
  14   2.0000     -24.613905      -669.7784
  15   2.0000     -18.988582      -516.7056
  16   2.0000     -18.986784      -516.6567
  17   2.0000     -10.395156      -282.8666
  18   2.0000     -10.343535      -281.4619
  19   2.0000     -10.343006      -281.4475
  20   2.0000     -10.340099      -281.3684
  21   2.0000     -10.332780      -281.1692
  22   2.0000     -10.317071      -280.7418
  23   2.0000     -10.279251      -279.7126
  24   2.0000     -10.189800      -277.2786
  25   2.0000      -1.321709       -35.9655
  26   2.0000      -1.298555       -35.3355
  27   2.0000      -1.283753       -34.9327
  28   2.0000      -1.276334       -34.7308
  29   2.0000      -1.272014       -34.6133
  30   2.0000      -1.260014       -34.2867
  31   2.0000      -1.237009       -33.6607
  32   2.0000      -1.231736       -33.5172
  33   2.0000      -1.231018       -33.4977
  34   2.0000      -1.230163       -33.4744
  35   2.0000      -1.223788       -33.3010
  36   2.0000      -1.220499       -33.2115
  37   2.0000      -1.215949       -33.0876
  38   2.0000      -1.204058       -32.7641
  39   2.0000      -1.175626       -31.9904
  40   2.0000      -0.997014       -27.1301
  41   2.0000      -0.915820       -24.9207
  42   2.0000      -0.822881       -22.3917
  43   2.0000      -0.800682       -21.7877
  44   2.0000      -0.770925       -20.9779
  45   2.0000      -0.732665       -19.9368
  46   2.0000      -0.690188       -18.7810
  47   2.0000      -0.661322       -17.9955
  48   2.0000      -0.642697       -17.4887
  49   2.0000      -0.622289       -16.9334
  50   2.0000      -0.617560       -16.8047
  51   2.0000      -0.609759       -16.5924
  52   2.0000      -0.601009       -16.3543
  53   2.0000      -0.596716       -16.2375
  54   2.0000      -0.594975       -16.1901
  55   2.0000      -0.582378       -15.8473
  56   2.0000      -0.579174       -15.7601
  57   2.0000      -0.574058       -15.6209
  58   2.0000      -0.567610       -15.4455
  59   2.0000      -0.556048       -15.1308
  60   2.0000      -0.553071       -15.0498
  61   2.0000      -0.547564       -14.9000
  62   2.0000      -0.537648       -14.6301
  63   2.0000      -0.521758       -14.1978
  64   2.0000      -0.486385       -13.2352
  65   2.0000      -0.482631       -13.1331
  66   2.0000      -0.477220       -12.9858
  67   2.0000      -0.473467       -12.8837
  68   2.0000      -0.469755       -12.7827
  69   2.0000      -0.466121       -12.6838
  70   2.0000      -0.461597       -12.5607
  71   2.0000      -0.455835       -12.4039
  72   2.0000      -0.452100       -12.3023
  73   2.0000      -0.449900       -12.2424
  74   2.0000      -0.447622       -12.1804
  75   2.0000      -0.441017       -12.0007
  76   2.0000      -0.437991       -11.9183
  77   2.0000      -0.433811       -11.8046
  78   2.0000      -0.432040       -11.7564
  79   2.0000      -0.427713       -11.6387
  80   2.0000      -0.423218       -11.5164
  81   2.0000      -0.422144       -11.4871
  82   2.0000      -0.419246       -11.4083
  83   2.0000      -0.415750       -11.3131
  84   2.0000      -0.414432       -11.2773
  85   2.0000      -0.411482       -11.1970
  86   2.0000      -0.408820       -11.1246
  87   2.0000      -0.405564       -11.0360
  88   2.0000      -0.403002       -10.9662
  89   2.0000      -0.398629       -10.8472
  90   2.0000      -0.389287       -10.5930
  91   2.0000      -0.382880       -10.4187
  92   2.0000      -0.375744       -10.2245
  93   2.0000      -0.373899       -10.1743
  94   2.0000      -0.362998        -9.8777
  95   2.0000      -0.348013        -9.4699
  96   2.0000      -0.318433        -8.6650
  97   2.0000      -0.232297        -6.3211
  98   2.0000      -0.217834        -5.9276
  99   2.0000      -0.215775        -5.8715
 100   0.0000      -0.019185        -0.5220
 101   0.0000      -0.006900        -0.1878
 102   0.0000       0.013592         0.3699
 103   0.0000       0.041459         1.1282
 104   0.0000       0.042960         1.1690

MULLIKEN ATOMIC CHARGES
-----------------------
   0 C :    0.166599
   1 O :   -0.477961
   2 O :   -0.491723
   3 C :    0.300357
   4 C :    0.279452
   5 C :    0.294827
   6 C :    0.292529
   7 C :    0.272739
   8 C :    0.294960
   9 C :    0.408254
  10 F :   -0.195408
  11 F :   -0.201096
  12 F :   -0.164638
  13 F :   -0.173380
  14 F :   -0.157003
  15 F :   -0.155226
  16 F :   -0.151150
  17 F :   -0.150287
  18 F :   -0.149238
  19 F :   -0.149528
  20 F :   -0.146842
  21 F :   -0.144080
  22 F :   -0.136066
  23 F :   -0.132889
  24 F :   -0.133201
Sum of atomic charges:   -1.0000000

LOEWDIN ATOMIC CHARGES
----------------------
   0 C :   -0.691502
   1 O :   -0.047430
   2 O :   -0.053700
   3 C :   -0.439043
   4 C :   -0.456947
   5 C :   -0.458538
   6 C :   -0.459295
   7 C :   -0.460544
   8 C :   -0.466701
   9 C :   -0.667953
  10 F :    0.163309
  11 F :    0.155582
  12 F :    0.210528
  13 F :    0.203411
  14 F :    0.217136
  15 F :    0.219190
  16 F :    0.223220
  17 F :    0.225019
  18 F :    0.226571
  19 F :    0.225378
  20 F :    0.224879
  21 F :    0.226336
  22 F :    0.226041
  23 F :    0.226763
  24 F :    0.228289

  Mayer bond orders larger than 0.100000
B(  0-C ,  1-O ) :   1.8746 B(  0-C ,  2-O ) :   1.8464 B(  0-C ,  3-C ) :   0.8530
B(  3-C ,  4-C ) :   0.9385 B(  3-C , 10-F ) :   1.0516 B(  3-C , 11-F ) :   1.0405
B(  4-C ,  5-C ) :   0.9432 B(  4-C , 12-F ) :   1.0770 B(  4-C , 13-F ) :   1.0676
B(  5-C ,  6-C ) :   0.9539 B(  5-C , 14-F ) :   1.0841 B(  5-C , 15-F ) :   1.0939
B(  6-C ,  7-C ) :   0.9490 B(  6-C , 16-F ) :   1.0907 B(  6-C , 17-F ) :   1.0953
B(  7-C ,  8-C ) :   0.9446 B(  7-C , 18-F ) :   1.0969 B(  7-C , 19-F ) :   1.1008
B(  8-C ,  9-C ) :   0.9719 B(  8-C , 20-F ) :   1.1006 B(  8-C , 21-F ) :   1.1133
B(  9-C , 22-F ) :   1.1584 B(  9-C , 23-F ) :   1.1631 B(  9-C , 24-F ) :   1.1704

Dispersion correction           -0.030550724
FINAL SINGLE POINT ENERGY     -1953.891676291555

DIPOLE MOMENT
-------------

Method             : SCF
Type of density    : Electron Density
Multiplicity       :   1
Irrep              :   0
Energy             : -1953.8611255679038550 Eh
Relativity type    :
Basis              : AO
                                X                 Y                 Z
Electronic contribution:    -18.768382450      -0.923482871       1.873837455
Nuclear contribution   :      9.861176900       0.554468584      -1.080792119
                        -----------------------------------------
Total Dipole Moment    :     -8.907205551      -0.369014287       0.793045336
                        -----------------------------------------
Magnitude (a.u.)       :      8.950050456
Magnitude (Debye)      :     22.749220350

VIBRATIONAL FREQUENCIES
-----------------------

Scaling factor for frequencies =  1.000000000  (already applied!)

     0:       0.00 cm**-1
     1:       0.00 cm**-1
     2:       0.00 cm**-1
     3:       0.00 cm**-1
     4:       0.00 cm**-1
     5:       0.00 cm**-1
     6:      27.87 cm**-1
     7:      34.75 cm**-1
     8:      40.39 cm**-1
     9:      51.66 cm**-1
    10:      55.81 cm**-1
    11:      68.20 cm**-1
    12:      71.24 cm**-1
    13:      73.75 cm**-1
    14:     114.08 cm**-1
    15:     129.55 cm**-1
    16:     157.40 cm**-1
    17:     182.97 cm**-1
    18:     194.32 cm**-1
    19:     196.81 cm**-1
    20:     202.87 cm**-1
    21:     225.42 cm**-1
    22:     238.38 cm**-1
    23:     244.09 cm**-1
    24:     249.69 cm**-1
    25:     253.29 cm**-1
    26:     278.09 cm**-1
    27:     297.73 cm**-1
    28:     307.05 cm**-1
    29:     327.36 cm**-1
    30:     338.57 cm**-1
    31:     352.47 cm**-1
    32:     355.59 cm**-1
    33:     361.70 cm**-1
    34:     361.93 cm**-1
    35:     370.60 cm**-1
    36:     402.78 cm**-1
    37:     452.48 cm**-1
    38:     493.54 cm**-1
    39:     515.87 cm**-1
    40:     529.35 cm**-1
    41:     544.85 cm**-1
    42:     547.91 cm**-1
    43:     567.54 cm**-1
    44:     586.99 cm**-1
    45:     603.98 cm**-1
    46:     635.10 cm**-1
    47:     650.30 cm**-1
    48:     676.66 cm**-1
    49:     711.78 cm**-1
    50:     718.37 cm**-1
    51:     759.90 cm**-1
    52:     781.97 cm**-1
    53:     859.87 cm**-1
    54:     987.64 cm**-1
    55:    1071.84 cm**-1
    56:    1078.89 cm**-1
    57:    1100.79 cm**-1
    58:    1106.21 cm**-1
    59:    1118.61 cm**-1
    60:    1126.83 cm**-1
    61:    1137.02 cm**-1
    62:    1139.68 cm**-1
    63:    1146.42 cm**-1
    64:    1153.16 cm**-1
    65:    1158.79 cm**-1
    66:    1173.89 cm**-1
    67:    1183.24 cm**-1
    68:    1209.29 cm**-1
    69:    1239.47 cm**-1
    70:    1259.41 cm**-1
    71:    1277.92 cm**-1
    72:    1328.75 cm**-1
    73:    1360.48 cm**-1
    74:    1724.87 cm**-1

IR SPECTRUM
-----------

 Mode   freq       eps      Int      T**2         TX        TY        TZ
       cm**-1   L/(mol*cm) km/mol    a.u.
----------------------------------------------------------------------------
  6:     27.87   0.000702    3.55  0.007859  (-0.021792 -0.017718 -0.084085)
  7:     34.75   0.000218    1.10  0.001954  ( 0.001615 -0.044121 -0.002072)
  8:     40.39   0.000534    2.70  0.004127  ( 0.000909 -0.063405 -0.010286)
  9:     51.66   0.000016    0.08  0.000095  (-0.005327 -0.005614 -0.005889)
 10:     55.81   0.000113    0.57  0.000629  ( 0.009185 -0.013725  0.018886)
 11:     68.20   0.000135    0.68  0.000616  ( 0.004403 -0.023818  0.005376)
 12:     71.24   0.000182    0.92  0.000796  (-0.011917  0.020832 -0.014844)
 13:     73.75   0.000299    1.51  0.001265  (-0.013970  0.016451 -0.028270)
 14:    114.08   0.000811    4.10  0.002220  (-0.038950  0.005483 -0.025931)
 15:    129.55   0.000325    1.64  0.000782  ( 0.026745  0.002657 -0.007725)
 16:    157.40   0.000444    2.24  0.000880  ( 0.023713 -0.012781  0.012434)
 17:    182.97   0.003045   15.39  0.005193  ( 0.001677  0.000620 -0.072038)
 18:    194.32   0.000243    1.23  0.000390  ( 0.011376  0.006021  0.014974)
 19:    196.81   0.000074    0.37  0.000118  ( 0.009074 -0.003330  0.004907)
 20:    202.87   0.000627    3.17  0.000964  ( 0.000380  0.031038 -0.000509)
 21:    225.42   0.000042    0.21  0.000058  (-0.000449  0.001967  0.007372)
 22:    238.38   0.000018    0.09  0.000024  ( 0.004489  0.000101  0.001960)
 23:    244.09   0.000142    0.72  0.000182  (-0.006211  0.002071  0.011787)
 24:    249.69   0.000002    0.01  0.000003  (-0.001093  0.000159  0.001351)
 25:    253.29   0.000209    1.06  0.000258  ( 0.005365 -0.001716  0.015036)
 26:    278.09   0.001429    7.22  0.001604  ( 0.038059 -0.011691 -0.004285)
 27:    297.73   0.000040    0.20  0.000042  ( 0.002638 -0.000209 -0.005921)
 28:    307.05   0.000155    0.78  0.000157  (-0.007868  0.009758  0.000175)
 29:    327.36   0.000136    0.69  0.000129  (-0.008950  0.002586 -0.006522)
 30:    338.57   0.000571    2.88  0.000526  (-0.015837  0.000449 -0.016588)
 31:    352.47   0.000187    0.94  0.000166  (-0.008056 -0.000202 -0.010028)
 32:    355.59   0.000033    0.17  0.000029  ( 0.005183  0.000608 -0.001375)
 33:    361.70   0.000102    0.51  0.000088  ( 0.009100 -0.001982 -0.000919)
 34:    361.93   0.000421    2.13  0.000363  ( 0.019044  0.000620  0.000341)
 35:    370.60   0.000086    0.44  0.000072  ( 0.008512 -0.000125 -0.000130)
 36:    402.78   0.000198    1.00  0.000153  (-0.008089 -0.009288  0.001320)
 37:    452.48   0.000861    4.35  0.000594  ( 0.017980 -0.006675  0.015037)
 38:    493.54   0.008831   44.63  0.005584  ( 0.074474 -0.005140  0.003278)
 39:    515.87   0.007612   38.47  0.004605  ( 0.061703 -0.026866 -0.008698)
 40:    529.35   0.006029   30.47  0.003554  (-0.053354  0.014849 -0.022066)
 41:    544.85   0.010198   51.53  0.005841  ( 0.058781  0.048239 -0.007643)
 42:    547.91   0.005405   27.31  0.003078  (-0.054112  0.003687 -0.011683)
 43:    567.54   0.001323    6.69  0.000727  (-0.010354  0.008539  0.023395)
 44:    586.99   0.003434   17.35  0.001825  (-0.042181  0.001413 -0.006655)
 45:    603.98   0.000258    1.30  0.000133  ( 0.004979 -0.010092  0.002599)
 46:    635.10   0.026222  132.52  0.012885  (-0.112648 -0.007805 -0.011584)
 47:    650.30   0.022433  113.37  0.010765  ( 0.103227 -0.001126 -0.010396)
 48:    676.66   0.000046    0.23  0.000021  (-0.003796 -0.002104  0.001487)
 49:    711.78   0.000261    1.32  0.000114  (-0.003407  0.002280  0.009878)
 50:    718.37   0.003208   16.21  0.001394  (-0.036728  0.006294 -0.002263)
 51:    759.90   0.000665    3.36  0.000273  (-0.002094  0.015018  0.006563)
 52:    781.97   0.020171  101.93  0.008050  ( 0.065895  0.027714 -0.054216)
 53:    859.87   0.003550   17.94  0.001288  ( 0.035445 -0.000796 -0.005601)
 54:    987.64   0.009930   50.18  0.003138  (-0.051080  0.011617 -0.019836)
 55:   1071.84   0.047785  241.49  0.013913  ( 0.024945  0.093246  0.067789)
 56:   1078.89   0.016291   82.33  0.004712  (-0.028058 -0.014889  0.060854)
 57:   1100.79   0.031619  159.79  0.008964  ( 0.017944 -0.034262  0.086417)
 58:   1106.21   0.004887   24.70  0.001379  (-0.013130  0.023156 -0.025883)
 59:   1118.61   0.025031  126.50  0.006983  ( 0.025038  0.073807 -0.030147)
 60:   1126.83   0.121740  615.23  0.033715  ( 0.008964  0.175519  0.053175)
 61:   1137.02   0.020290  102.54  0.005569  (-0.000681  0.067393  0.032038)
 62:   1139.68   0.039412  199.17  0.010792  ( 0.014143  0.035185  0.096714)
 63:   1146.42   0.119622  604.52  0.032562  ( 0.009253 -0.034345  0.176909)
 64:   1153.16   0.078128  394.83  0.021143  (-0.037250  0.139923 -0.013297)
 65:   1158.79   0.069770  352.59  0.018789  (-0.027396  0.019674  0.132859)
 66:   1173.89   0.084048  424.74  0.022343  ( 0.019796  0.056778 -0.136848)
 67:   1183.24   0.007209   36.43  0.001901  ( 0.000879  0.006905  0.043043)
 68:   1209.29   0.011908   60.18  0.003073  (-0.038255  0.010159  0.038810)
 69:   1239.47   0.003573   18.06  0.000900  ( 0.014095 -0.020984 -0.016146)
 70:   1259.41   0.004945   24.99  0.001225  (-0.024220  0.021579  0.013152)
 71:   1277.92   0.005894   29.79  0.001439  ( 0.019239 -0.024187  0.022006)
 72:   1328.75   0.051397  259.74  0.012071  (-0.107223 -0.018957  0.014655)
 73:   1360.48   0.021400  108.15  0.004909  (-0.062962 -0.017588  0.025204)
 74:   1724.87   0.156919  793.00  0.028390  (-0.030060  0.153989  0.061429)

--------------------------
THERMOCHEMISTRY AT 298.15K
--------------------------

Temperature         ...   298.15 K
Pressure            ...     1.00 atm
Total Mass          ...   413.06 AMU
Quasi RRHO          ...     True
Cut-Off Frequency   ...     1.00 cm^-1

Throughout the following assumptions are being made:
  (1) The electronic state is orbitally nondegenerate
  (2) There are no thermally accessible electronically excited states
  (3) Hindered rotations indicated by low frequency modes are not
      treated as such but are treated as vibrations and this may
      cause some error
  (4) All equations used are the standard statistical mechanics
      equations for an ideal gas
  (5) All vibrations are strictly harmonic

freq.      27.87  E(vib)   ...       0.55
freq.      34.75  E(vib)   ...       0.54
freq.      40.39  E(vib)   ...       0.54
freq.      51.66  E(vib)   ...       0.52
freq.      55.81  E(vib)   ...       0.52
freq.      68.20  E(vib)   ...       0.50
freq.      71.24  E(vib)   ...       0.50
freq.      73.75  E(vib)   ...       0.49
freq.     114.08  E(vib)   ...       0.44
freq.     129.55  E(vib)   ...       0.43
freq.     157.40  E(vib)   ...       0.40
freq.     182.97  E(vib)   ...       0.37
freq.     194.32  E(vib)   ...       0.36
freq.     196.81  E(vib)   ...       0.36
freq.     202.87  E(vib)   ...       0.35
freq.     225.42  E(vib)   ...       0.33
freq.     238.38  E(vib)   ...       0.32
freq.     244.09  E(vib)   ...       0.31
freq.     249.69  E(vib)   ...       0.31
freq.     253.29  E(vib)   ...       0.30
freq.     278.09  E(vib)   ...       0.28
freq.     297.73  E(vib)   ...       0.27
freq.     307.05  E(vib)   ...       0.26
freq.     327.36  E(vib)   ...       0.24
freq.     338.57  E(vib)   ...       0.23
freq.     352.47  E(vib)   ...       0.23
freq.     355.59  E(vib)   ...       0.22
freq.     361.70  E(vib)   ...       0.22
freq.     361.93  E(vib)   ...       0.22
freq.     370.60  E(vib)   ...       0.21
freq.     402.78  E(vib)   ...       0.19
freq.     452.48  E(vib)   ...       0.16
freq.     493.54  E(vib)   ...       0.14
freq.     515.87  E(vib)   ...       0.13
freq.     529.35  E(vib)   ...       0.13
freq.     544.85  E(vib)   ...       0.12
freq.     547.91  E(vib)   ...       0.12
freq.     567.54  E(vib)   ...       0.11
freq.     586.99  E(vib)   ...       0.10
freq.     603.98  E(vib)   ...       0.10
freq.     635.10  E(vib)   ...       0.09
freq.     650.30  E(vib)   ...       0.08
freq.     676.66  E(vib)   ...       0.08
freq.     711.78  E(vib)   ...       0.07
freq.     718.37  E(vib)   ...       0.07
freq.     759.90  E(vib)   ...       0.06
freq.     781.97  E(vib)   ...       0.05
freq.     859.87  E(vib)   ...       0.04
freq.     987.64  E(vib)   ...       0.02
freq.    1071.84  E(vib)   ...       0.02
freq.    1078.89  E(vib)   ...       0.02
freq.    1100.79  E(vib)   ...       0.02
freq.    1106.21  E(vib)   ...       0.02
freq.    1118.61  E(vib)   ...       0.01
freq.    1126.83  E(vib)   ...       0.01
freq.    1137.02  E(vib)   ...       0.01
freq.    1139.68  E(vib)   ...       0.01
freq.    1146.42  E(vib)   ...       0.01
freq.    1153.16  E(vib)   ...       0.01
freq.    1158.79  E(vib)   ...       0.01
freq.    1173.89  E(vib)   ...       0.01
freq.    1183.24  E(vib)   ...       0.01
freq.    1209.29  E(vib)   ...       0.01
freq.    1239.47  E(vib)   ...       0.01
freq.    1259.41  E(vib)   ...       0.01
freq.    1277.92  E(vib)   ...       0.01
freq.    1328.75  E(vib)   ...       0.01
freq.    1360.48  E(vib)   ...       0.01
freq.    1724.87  E(vib)   ...       0.00

------------
INNER ENERGY
------------

The inner energy is: U= E(el) + E(ZPE) + E(vib) + E(rot) + E(trans)
    E(el)   - is the total energy from the electronic structure calculation
              = E(kin-el) + E(nuc-el) + E(el-el) + E(nuc-nuc)
    E(ZPE)  - the the zero temperature vibrational energy from the frequency calculation
    E(vib)  - the the finite temperature correction to E(ZPE) due to population
              of excited vibrational states
    E(rot)  - is the rotational thermal energy
    E(trans)- is the translational thermal energy

Summary of contributions to the inner energy U:
Electronic energy                ...  -1953.89167629 Eh
Zero point energy                ...      0.09633471 Eh      60.45 kcal/mol
Thermal vibrational correction   ...      0.02056909 Eh      12.91 kcal/mol
Thermal rotational correction    ...      0.00141627 Eh       0.89 kcal/mol
Thermal translational correction ...      0.00141627 Eh       0.89 kcal/mol
-----------------------------------------------------------------------
Total thermal energy                  -1953.77193995 Eh

Summary of corrections to the electronic energy:
(perhaps to be used in another calculation)
Total thermal correction                  0.02340163 Eh      14.68 kcal/mol
Non-thermal (ZPE) correction              0.09633471 Eh      60.45 kcal/mol
-----------------------------------------------------------------------
Total correction                          0.11973634 Eh      75.14 kcal/mol

--------
ENTHALPY
--------

The enthalpy is H = U + kB*T
                kB is Boltzmann's constant
Total thermal energy              ...  -1953.77193995 Eh
Thermal Enthalpy correction       ...      0.00094421 Eh       0.59 kcal/mol
-----------------------------------------------------------------------
Total Enthalpy                    ...  -1953.77099574 Eh

Note: Only C1 symmetry has been detected, increase convergence thresholds
      if your molecule has a higher symmetry. Symmetry factor of 1.0 is
      used for the rotational entropy correction.

Note: Rotational entropy computed according to Herzberg
Infrared and Raman Spectra, Chapter V,1, Van Nostrand Reinhold, 1945
Point Group:  C1, Symmetry Number:   1
Rotational constants in cm-1:     0.021228     0.003720     0.003667

Vibrational entropy computed according to the QRRHO of S. Grimme
Chem.Eur.J. 2012 18 9955 using a reference frequency of 100.0 cm-1

-------
ENTROPY
-------

The entropy contributions are T*S = T*(S(el)+S(vib)+S(rot)+S(trans))
     S(el)   - electronic entropy
     S(vib)  - vibrational entropy
     S(rot)  - rotational entropy
     S(trans)- translational entropy
The entropies will be listed as multiplied by the temperature to get
units of energy

Electronic entropy                ...      0.00000000 Eh      0.00 kcal/mol
Vibrational entropy               ...      0.03670928 Eh     23.04 kcal/mol
Rotational entropy                ...      0.01661812 Eh     10.43 kcal/mol

                             ****ORCA TERMINATED NORMALLY****
TOTAL RUN TIME: 0 days 0 hours 16 minutes 0 seconds 855 msec
