                         Program Version 6.0.1  -  RELEASE   -
|  1> !r2scanh def2-TZVP opt d3 TightSCF SlowConv defgrid2
|  2>
|  3> %pal
|  4> nprocs 20
|  5> end
|  6>
|  7> %scf
|  8> MaxIter 1500
|  9> end
| 10>
| 11> %maxcore 8000
| 12>
| 13> !CPCM
| 14> %cpcm smd true
| 15> SMDsolvent "ACETONITRILE"
| 16> end
| 17>
| 18> * xyz 0 2
| 19> 6        4.790427000     -0.033865800     -0.529943200
| 20> 8        5.449345000     -1.206924000     -0.894594600
| 21> 8        4.978223000      1.323071000     -0.737377200
| 22> 6        3.506687600     -0.338741600      0.376153800
| 23> 6        2.222300000      0.400524800     -0.110681600
| 24> 6        0.900506800     -0.386389800      0.175703000
| 25> 6       -0.395261200      0.487294000      0.065549000
| 26> 6       -1.705693600     -0.364773800     -0.068373600
| 27> 6       -3.005136200      0.445344800      0.258164000
| 28> 6       -4.319880200     -0.214526000     -0.270540800
| 29> 9        3.211587400     -1.692050400      0.412735200
| 30> 9        3.741061800      0.055285800      1.689948800
| 31> 9        2.125696800      1.616867800      0.483236600
| 32> 9        2.314152400      0.589704000     -1.455769200
| 33> 9        0.794028800     -1.413561400     -0.700839000
| 34> 9        0.958350600     -0.884509000      1.435093400
| 35> 9       -0.299075000      1.289512600     -1.020910800
| 36> 9       -1.641790400     -1.418189000      0.779523800
| 37> 9       -1.792381400     -0.831391600     -1.336863600
| 38> 9       -2.918792200      1.679227200     -0.295171200
| 39> 9       -3.119771000      0.573779800      1.598579800
| 40> 9       -4.383115600     -1.504377600      0.089127600
| 41> 9       -5.365669800      0.430528600      0.260394200
| 42> 9       -4.396020400     -0.128550600     -1.602941800
| 43> 1        5.903122371     -2.014774547     -1.145719253
| 44> *
| 45>
| 46>                          ****END OF INPUT****
 Total Charge           Charge          ....    0
 Multiplicity           Mult            ....    2
 Number of Electrons    NEL             ....  191
Dispersion correction           -0.008046804
FINAL SINGLE POINT ENERGY     -1853.445553143647
Dispersion correction             ... done (  0.0 sec)
Dispersion correction           -0.008106622
FINAL SINGLE POINT ENERGY     -1853.501689600538
Dispersion correction             ... done (  0.0 sec)
Dispersion correction           -0.008148293
FINAL SINGLE POINT ENERGY     -1853.515022861490
Dispersion correction             ... done (  0.0 sec)
FINAL SINGLE POINT ENERGY     -1853.521603552696
FINAL SINGLE POINT ENERGY     -1853.522703093281
FINAL SINGLE POINT ENERGY     -1853.524327801583
FINAL SINGLE POINT ENERGY     -1853.526307032829
FINAL SINGLE POINT ENERGY     -1853.529687022799
FINAL SINGLE POINT ENERGY     -1853.536156091815
FINAL SINGLE POINT ENERGY     -1853.541547782063
FINAL SINGLE POINT ENERGY     -1853.569197874009
FINAL SINGLE POINT ENERGY     -1853.569245233738
FINAL SINGLE POINT ENERGY     -1853.569286385363
FINAL SINGLE POINT ENERGY     -1853.569316976714
FINAL SINGLE POINT ENERGY     -1853.569198153589
FINAL SINGLE POINT ENERGY     -1853.569349468001
FINAL SINGLE POINT ENERGY     -1853.569358005819
Dispersion correction             ... done (  0.0 sec)
Dispersion correction           -0.008456410
FINAL SINGLE POINT ENERGY     -1853.569367400856
Dispersion correction             ... done (  0.0 sec)
Dispersion correction           -0.008458267
FINAL SINGLE POINT ENERGY     -1853.569369698689
Dispersion correction             ... done (  0.0 sec)
                    ***********************HURRAY********************

CARTESIAN COORDINATES (ANGSTROEM)
---------------------------------
  C      4.236637    0.505276    0.328427
  O      5.182230   -0.137695   -0.327675
  O      4.243585    1.646921    0.682964
  C      3.018026   -0.407770    0.594970
  C      1.919770   -0.167918   -0.474551
  C      0.779737   -1.234734   -0.483853
  C     -0.442622   -0.751042   -1.191528
  C     -1.862208   -0.767476   -0.709709
  C     -2.249624    0.475033    0.140229
  C     -3.736082    0.572324    0.567329
  F      3.363198   -1.707106    0.578443
  F      2.521065   -0.108584    1.804785
  F      1.378580    1.042127   -0.254790
  F      2.506571   -0.157563   -1.685053
  F      1.268007   -2.343627   -1.089464
  F      0.472062   -1.555934    0.785668
  F     -0.234262   -0.148325   -2.343858
  F     -2.087903   -1.869100    0.029787
  F     -2.666995   -0.790698   -1.791706
  F     -1.956872    1.574332   -0.574141
  F     -1.509865    0.471648    1.260596
  F     -4.087170   -0.484596    1.289534
  F     -3.890897    1.665611    1.308558
  F     -4.532044    0.660602   -0.489724
  H      5.919979    0.476808   -0.500753

 Multiplicity           Mult            ....    2
 Number of Electrons    NEL             ....  191
 Basis Dimension        Dim             ....  750

ORBITAL ENERGIES
----------------
                 SPIN UP ORBITALS
  NO   OCC          E(Eh)            E(eV)
   0   1.0000     -24.747542      -673.4149
   1   1.0000     -24.731897      -672.9891
   2   1.0000     -24.731740      -672.9849
   3   1.0000     -24.731680      -672.9832
   4   1.0000     -24.731578      -672.9805
   5   1.0000     -24.730774      -672.9586
   6   1.0000     -24.730486      -672.9507
   7   1.0000     -24.730447      -672.9497
   8   1.0000     -24.729338      -672.9195
   9   1.0000     -24.727448      -672.8681
  10   1.0000     -24.726801      -672.8505
  11   1.0000     -24.722339      -672.7290
  12   1.0000     -24.721285      -672.7004
  13   1.0000     -24.720715      -672.6849
  14   1.0000     -19.196739      -522.3698
  15   1.0000     -19.140562      -520.8412
  16   1.0000     -10.440195      -284.0921
  17   1.0000     -10.388652      -282.6896
  18   1.0000     -10.386866      -282.6410
  19   1.0000     -10.382584      -282.5245
  20   1.0000     -10.381364      -282.4913
  21   1.0000     -10.374932      -282.3162
  22   1.0000     -10.325849      -280.9806
  23   1.0000     -10.313526      -280.6453
  24   1.0000      -1.361333       -37.0438
  25   1.0000      -1.333950       -36.2986
  26   1.0000      -1.326980       -36.1090
  27   1.0000      -1.314458       -35.7682
  28   1.0000      -1.310365       -35.6568
  29   1.0000      -1.308425       -35.6041
  30   1.0000      -1.302324       -35.4380
  31   1.0000      -1.272283       -34.6206
  32   1.0000      -1.266128       -34.4531
  33   1.0000      -1.265358       -34.4321
  34   1.0000      -1.261232       -34.3199
  35   1.0000      -1.254383       -34.1335
  36   1.0000      -1.251970       -34.0678
  37   1.0000      -1.249789       -34.0085
  38   1.0000      -1.152438       -31.3594
  39   1.0000      -1.065334       -28.9892
  40   1.0000      -0.860767       -23.4227
  41   1.0000      -0.831893       -22.6370
  42   1.0000      -0.811095       -22.0710
  43   1.0000      -0.774223       -21.0677
  44   1.0000      -0.729297       -19.8452
  45   1.0000      -0.698010       -18.9938
  46   1.0000      -0.668922       -18.2023
  47   1.0000      -0.660479       -17.9726
  48   1.0000      -0.638945       -17.3866
  49   1.0000      -0.635278       -17.2868
  50   1.0000      -0.629774       -17.1370
  51   1.0000      -0.624559       -16.9951
  52   1.0000      -0.620510       -16.8849
  53   1.0000      -0.613364       -16.6905
  54   1.0000      -0.605241       -16.4694
  55   1.0000      -0.601324       -16.3629
  56   1.0000      -0.598049       -16.2737
  57   1.0000      -0.589527       -16.0418
  58   1.0000      -0.581413       -15.8211
  59   1.0000      -0.578382       -15.7386
  60   1.0000      -0.569352       -15.4929
  61   1.0000      -0.561619       -15.2824
  62   1.0000      -0.528472       -14.3804
  63   1.0000      -0.512026       -13.9329
  64   1.0000      -0.498927       -13.5765
  65   1.0000      -0.493759       -13.4359
  66   1.0000      -0.492829       -13.4106
  67   1.0000      -0.491572       -13.3764
  68   1.0000      -0.490403       -13.3446
  69   1.0000      -0.482044       -13.1171
  70   1.0000      -0.479069       -13.0361
  71   1.0000      -0.477509       -12.9937
  72   1.0000      -0.472738       -12.8639
  73   1.0000      -0.469626       -12.7792
  74   1.0000      -0.465675       -12.6717
  75   1.0000      -0.465347       -12.6627
  76   1.0000      -0.460989       -12.5442
  77   1.0000      -0.454018       -12.3545
  78   1.0000      -0.451864       -12.2958
  79   1.0000      -0.447856       -12.1868
  80   1.0000      -0.445864       -12.1326
  81   1.0000      -0.443952       -12.0805
  82   1.0000      -0.438409       -11.9297
  83   1.0000      -0.432712       -11.7747
  84   1.0000      -0.432067       -11.7571
  85   1.0000      -0.430911       -11.7257
  86   1.0000      -0.427640       -11.6367
  87   1.0000      -0.426506       -11.6058
  88   1.0000      -0.423146       -11.5144
  89   1.0000      -0.414723       -11.2852
  90   1.0000      -0.400231       -10.8908
  91   1.0000      -0.368137       -10.0175
  92   1.0000      -0.351415        -9.5625
  93   1.0000      -0.347633        -9.4596
  94   1.0000      -0.303914        -8.2699
  95   1.0000      -0.270040        -7.3482
  96   0.0000      -0.061069        -1.6618
  97   0.0000      -0.004793        -0.1304
  98   0.0000       0.019072         0.5190
  99   0.0000       0.036561         0.9949
 100   0.0000       0.043425         1.1816

                 SPIN DOWN ORBITALS
  NO   OCC          E(Eh)            E(eV)
   0   1.0000     -24.742371      -673.2741
   1   1.0000     -24.731902      -672.9893
   2   1.0000     -24.731737      -672.9848
   3   1.0000     -24.731683      -672.9833
   4   1.0000     -24.731560      -672.9800
   5   1.0000     -24.730711      -672.9569
   6   1.0000     -24.730331      -672.9465
   7   1.0000     -24.730323      -672.9463
   8   1.0000     -24.729181      -672.9152
   9   1.0000     -24.726874      -672.8524
  10   1.0000     -24.726261      -672.8358
  11   1.0000     -24.722342      -672.7291
  12   1.0000     -24.720707      -672.6846
  13   1.0000     -24.719703      -672.6573
  14   1.0000     -19.196735      -522.3697
  15   1.0000     -19.140535      -520.8404
  16   1.0000     -10.440032      -284.0877
  17   1.0000     -10.389798      -282.7208
  18   1.0000     -10.387888      -282.6688
  19   1.0000     -10.381802      -282.5032
  20   1.0000     -10.380895      -282.4785
  21   1.0000     -10.374881      -282.3149
  22   1.0000     -10.325830      -280.9801
  23   1.0000     -10.296532      -280.1829
  24   1.0000      -1.361176       -37.0395
  25   1.0000      -1.332863       -36.2690
  26   1.0000      -1.326123       -36.0856
  27   1.0000      -1.312812       -35.7234
  28   1.0000      -1.309530       -35.6341
  29   1.0000      -1.308134       -35.5961
  30   1.0000      -1.294912       -35.2363
  31   1.0000      -1.272136       -34.6166
  32   1.0000      -1.265927       -34.4476
  33   1.0000      -1.264899       -34.4197
  34   1.0000      -1.260900       -34.3108
  35   1.0000      -1.253421       -34.1073
  36   1.0000      -1.250496       -34.0277
  37   1.0000      -1.249419       -33.9984
  38   1.0000      -1.152414       -31.3588
  39   1.0000      -1.065298       -28.9882
  40   1.0000      -0.846375       -23.0310
  41   1.0000      -0.830571       -22.6010
  42   1.0000      -0.802941       -21.8491
  43   1.0000      -0.771985       -21.0068
  44   1.0000      -0.723762       -19.6946
  45   1.0000      -0.696228       -18.9453
  46   1.0000      -0.662963       -18.0401
  47   1.0000      -0.660231       -17.9658
  48   1.0000      -0.636251       -17.3133
  49   1.0000      -0.633457       -17.2373
  50   1.0000      -0.629071       -17.1179
  51   1.0000      -0.623572       -16.9683
  52   1.0000      -0.619352       -16.8534
  53   1.0000      -0.611101       -16.6289
  54   1.0000      -0.604313       -16.4442
  55   1.0000      -0.599725       -16.3193
  56   1.0000      -0.596059       -16.2196
  57   1.0000      -0.588160       -16.0046
  58   1.0000      -0.580458       -15.7951
  59   1.0000      -0.575959       -15.6726
  60   1.0000      -0.567750       -15.4493
  61   1.0000      -0.561108       -15.2685
  62   1.0000      -0.512109       -13.9352
  63   1.0000      -0.503643       -13.7048
  64   1.0000      -0.497061       -13.5257
  65   1.0000      -0.493448       -13.4274
  66   1.0000      -0.491328       -13.3697
  67   1.0000      -0.490430       -13.3453
  68   1.0000      -0.486398       -13.2356
  69   1.0000      -0.481594       -13.1048
  70   1.0000      -0.478037       -13.0080
  71   1.0000      -0.475406       -12.9364
  72   1.0000      -0.472256       -12.8507
  73   1.0000      -0.469029       -12.7629
  74   1.0000      -0.464784       -12.6474
  75   1.0000      -0.463485       -12.6121
  76   1.0000      -0.458639       -12.4802
  77   1.0000      -0.451911       -12.2971
  78   1.0000      -0.450991       -12.2721
  79   1.0000      -0.447031       -12.1643
  80   1.0000      -0.445429       -12.1207
  81   1.0000      -0.442913       -12.0523
  82   1.0000      -0.438121       -11.9219
  83   1.0000      -0.431812       -11.7502
  84   1.0000      -0.431078       -11.7302
  85   1.0000      -0.429631       -11.6908
  86   1.0000      -0.427189       -11.6244
  87   1.0000      -0.426239       -11.5985
  88   1.0000      -0.422077       -11.4853
  89   1.0000      -0.413151       -11.2424
  90   1.0000      -0.398353       -10.8397
  91   1.0000      -0.364304        -9.9132
  92   1.0000      -0.351029        -9.5520
  93   1.0000      -0.345212        -9.3937
  94   1.0000      -0.303299        -8.2532
  95   0.0000      -0.129280        -3.5179
  96   0.0000      -0.059938        -1.6310
  97   0.0000      -0.001961        -0.0534
  98   0.0000       0.021728         0.5913
  99   0.0000       0.041415         1.1270

MULLIKEN ATOMIC CHARGES AND SPIN POPULATIONS
--------------------------------------------
   0 C :    0.283104    0.000860
   1 O :   -0.365331   -0.000038
   2 O :   -0.327571    0.000838
   3 C :    0.413580    0.002182
   4 C :    0.287848    0.008823
   5 C :    0.371386   -0.007474
   6 C :    0.096757    0.848044
   7 C :    0.376007   -0.034844
   8 C :    0.317275    0.031402
   9 C :    0.477048    0.005642
  10 F :   -0.173972   -0.000058
  11 F :   -0.171286    0.000194
  12 F :   -0.170613    0.000696
  13 F :   -0.170665    0.002136
  14 F :   -0.170885    0.026773
  15 F :   -0.173276    0.001924
  16 F :   -0.143255    0.091780
  17 F :   -0.167786    0.008608
  18 F :   -0.168653    0.009203
  19 F :   -0.170276    0.000172
  20 F :   -0.169648    0.000309
  21 F :   -0.156857   -0.000058
  22 F :   -0.156002    0.002821
  23 F :   -0.155893   -0.000039
  24 H :    0.388963    0.000103
Sum of atomic charges         :    0.0000000

LOEWDIN ATOMIC CHARGES AND SPIN POPULATIONS
-------------------------------------------
   0 C :   -0.496679    0.000838
   1 O :    0.161079    0.000075
   2 O :    0.133438    0.000696
   3 C :   -0.465076    0.002596
   4 C :   -0.461624    0.013116
   5 C :   -0.488691    0.059194
   6 C :   -0.161782    0.664802
   7 C :   -0.492676    0.060238
   8 C :   -0.475970    0.025825
   9 C :   -0.678381    0.005238
  10 F :    0.217200   -0.000017
  11 F :    0.220707    0.000239
  12 F :    0.230419    0.001601
  13 F :    0.226121    0.002656
  14 F :    0.206973    0.028098
  15 F :    0.228186    0.003475
  16 F :    0.268730    0.107970
  17 F :    0.224246    0.009869
  18 F :    0.221738    0.009209
  19 F :    0.227772    0.000481
  20 F :    0.228433    0.000760
  21 F :    0.231021   -0.000019
  22 F :    0.227472    0.002980
  23 F :    0.232256    0.000012
  24 H :    0.235087    0.000067

  Mayer bond orders larger than 0.100000
B(  0-C ,  1-O ) :   1.2941 B(  0-C ,  2-O ) :   2.0400 B(  0-C ,  3-C ) :   0.8796
B(  1-O , 24-H ) :   0.8171 B(  3-C ,  4-C ) :   0.9373 B(  3-C , 10-F ) :   1.0835
B(  3-C , 11-F ) :   1.0976 B(  4-C ,  5-C ) :   0.9167 B(  4-C , 12-F ) :   1.0739
B(  4-C , 13-F ) :   1.0716 B(  5-C ,  6-C ) :   1.0487 B(  5-C , 14-F ) :   1.0767
B(  5-C , 15-F ) :   1.0631 B(  6-C ,  7-C ) :   0.9943 B(  6-C , 16-F ) :   1.1101
B(  7-C ,  8-C ) :   0.9266 B(  7-C , 17-F ) :   1.0930 B(  7-C , 18-F ) :   1.0786
B(  8-C ,  9-C ) :   0.9466 B(  8-C , 19-F ) :   1.0685 B(  8-C , 20-F ) :   1.0748
B(  9-C , 21-F ) :   1.1361 B(  9-C , 22-F ) :   1.1281 B(  9-C , 23-F ) :   1.1398

Dispersion correction           -0.008458400
FINAL SINGLE POINT ENERGY     -1853.569370410734

DIPOLE MOMENT
-------------

Method             : SCF
Type of density    : Electron Density
Multiplicity       :   2
Irrep              :   0
Energy             : -1853.5609120103329133 Eh
Relativity type    :
Basis              : AO
                                X                 Y                 Z
Electronic contribution:    -13.335880236      -2.059528799      -0.321226218
Nuclear contribution   :     14.366994754       1.879946989      -0.346411336
                        -----------------------------------------
Total Dipole Moment    :      1.031114517      -0.179581810      -0.667637554
                        -----------------------------------------
Magnitude (a.u.)       :      1.241445399
Magnitude (Debye)      :      3.155503432

Rotational constants in cm-1:             0.017563             0.004610             0.004385
Rotational constants in MHz :           526.532459           138.200478           131.465999

                             ****ORCA TERMINATED NORMALLY****
TOTAL RUN TIME: 0 days 1 hours 31 minutes 23 seconds 270 msec
