                         Program Version 6.0.1  -  RELEASE   -
|  1> !TPSSh def2-TZVP freq d3 TightSCF SlowConv defgrid2
|  2>
|  3> %pal
|  4> nprocs 20
|  5> end
|  6>
|  7> %scf
|  8> MaxIter 1500
|  9> end
| 10>
| 11> %maxcore 8000
| 12>
| 13> !CPCM
| 14> %cpcm smd true
| 15> SMDsolvent "ACETONITRILE"
| 16> end
| 17>
| 18> * xyz -1 2
| 19> 6        4.875657000      0.076205000     -0.271273000
| 20> 8        5.265071000     -0.207387000     -1.438759000
| 21> 8        5.262338000      1.301339000      0.324235000
| 22> 1        5.776423000      1.744204000     -0.371072000
| 23> 6        3.593494000     -0.413055000      0.297990000
| 24> 6        2.244133000      0.219088000     -0.202147000
| 25> 6        0.886399000     -0.452572000      0.186412000
| 26> 6       -0.393504000      0.423787000     -0.021534000
| 27> 6       -1.739674000     -0.378091000     -0.028539000
| 28> 6       -3.006342000      0.508771000      0.208423000
| 29> 6       -4.357197000     -0.161683000     -0.199230000
| 30> 9        3.464227000     -1.768109000      0.024066000
| 31> 9        3.568254000     -0.254888000      1.676417000
| 32> 9        2.202429000      1.509604000      0.245673000
| 33> 9        2.282993000      0.250895000     -1.565559000
| 34> 9        0.741311000     -1.584227000     -0.551528000
| 35> 9        0.923612000     -0.800870000      1.498512000
| 36> 9       -0.451512000      1.344083000      0.970581000
| 37> 9       -0.297462000      1.074910000     -1.205716000
| 38> 9       -1.704296000     -1.317040000      0.945035000
| 39> 9       -1.866620000     -1.002511000     -1.221139000
| 40> 9       -2.896029000      1.655381000     -0.499780000
| 41> 9       -3.084133000      0.815741000      1.519722000
| 42> 9       -4.463073000     -1.383733000      0.333885000
| 43> 9       -5.366244000      0.590581000      0.254509000
| 44> 9       -4.465284000     -0.256681000     -1.526307000
| 45> *
| 46>
| 47>                          ****END OF INPUT****

CARTESIAN COORDINATES (ANGSTROEM)
---------------------------------
  C      4.875657    0.076205   -0.271273
  O      5.265071   -0.207387   -1.438759
  O      5.262338    1.301339    0.324235
  H      5.776423    1.744204   -0.371072
  C      3.593494   -0.413055    0.297990
  C      2.244133    0.219088   -0.202147
  C      0.886399   -0.452572    0.186412
  C     -0.393504    0.423787   -0.021534
  C     -1.739674   -0.378091   -0.028539
  C     -3.006342    0.508771    0.208423
  C     -4.357197   -0.161683   -0.199230
  F      3.464227   -1.768109    0.024066
  F      3.568254   -0.254888    1.676417
  F      2.202429    1.509604    0.245673
  F      2.282993    0.250895   -1.565559
  F      0.741311   -1.584227   -0.551528
  F      0.923612   -0.800870    1.498512
  F     -0.451512    1.344083    0.970581
  F     -0.297462    1.074910   -1.205716
  F     -1.704296   -1.317040    0.945035
  F     -1.866620   -1.002511   -1.221139
  F     -2.896029    1.655381   -0.499780
  F     -3.084133    0.815741    1.519722
  F     -4.463073   -1.383733    0.333885
  F     -5.366244    0.590581    0.254509
  F     -4.465284   -0.256681   -1.526307

 Total Charge           Charge          ....   -1
 Multiplicity           Mult            ....    2
 Number of Electrons    NEL             ....  201
 Basis Dimension        Dim             ....  781

ORBITAL ENERGIES
----------------
                 SPIN UP ORBITALS
  NO   OCC          E(Eh)            E(eV)
   0   1.0000     -24.659335      -671.0146
   1   1.0000     -24.658406      -670.9893
   2   1.0000     -24.657543      -670.9658
   3   1.0000     -24.656862      -670.9473
   4   1.0000     -24.656004      -670.9240
   5   1.0000     -24.655126      -670.9001
   6   1.0000     -24.654223      -670.8755
   7   1.0000     -24.649939      -670.7589
   8   1.0000     -24.648569      -670.7217
   9   1.0000     -24.641116      -670.5189
  10   1.0000     -24.639027      -670.4620
  11   1.0000     -24.626699      -670.1265
  12   1.0000     -24.624533      -670.0676
  13   1.0000     -24.601588      -669.4433
  14   1.0000     -24.600289      -669.4079
  15   1.0000     -19.043605      -518.2028
  16   1.0000     -18.982306      -516.5348
  17   1.0000     -10.393638      -282.8253
  18   1.0000     -10.340225      -281.3718
  19   1.0000     -10.338530      -281.3257
  20   1.0000     -10.331884      -281.1449
  21   1.0000     -10.320370      -280.8315
  22   1.0000     -10.300304      -280.2855
  23   1.0000     -10.273967      -279.5689
  24   1.0000     -10.167864      -276.6817
  25   1.0000      -1.320088       -35.9214
  26   1.0000      -1.292331       -35.1661
  27   1.0000      -1.277136       -34.7526
  28   1.0000      -1.271026       -34.5864
  29   1.0000      -1.261509       -34.3274
  30   1.0000      -1.244977       -33.8776
  31   1.0000      -1.234702       -33.5980
  32   1.0000      -1.229335       -33.4519
  33   1.0000      -1.226104       -33.3640
  34   1.0000      -1.219359       -33.1804
  35   1.0000      -1.215024       -33.0625
  36   1.0000      -1.212510       -32.9941
  37   1.0000      -1.205527       -32.8041
  38   1.0000      -1.189883       -32.3784
  39   1.0000      -1.162190       -31.6248
  40   1.0000      -1.007680       -27.4204
  41   1.0000      -0.921580       -25.0775
  42   1.0000      -0.817641       -22.2491
  43   1.0000      -0.792265       -21.5586
  44   1.0000      -0.762329       -20.7440
  45   1.0000      -0.729700       -19.8561
  46   1.0000      -0.692068       -18.8321
  47   1.0000      -0.661779       -18.0079
  48   1.0000      -0.640295       -17.4233
  49   1.0000      -0.618031       -16.8175
  50   1.0000      -0.614009       -16.7080
  51   1.0000      -0.607375       -16.5275
  52   1.0000      -0.596097       -16.2206
  53   1.0000      -0.591135       -16.0856
  54   1.0000      -0.589912       -16.0523
  55   1.0000      -0.580600       -15.7989
  56   1.0000      -0.575176       -15.6513
  57   1.0000      -0.566733       -15.4216
  58   1.0000      -0.560735       -15.2584
  59   1.0000      -0.556587       -15.1455
  60   1.0000      -0.549623       -14.9560
  61   1.0000      -0.538638       -14.6571
  62   1.0000      -0.535201       -14.5636
  63   1.0000      -0.511994       -13.9321
  64   1.0000      -0.483130       -13.1466
  65   1.0000      -0.478327       -13.0159
  66   1.0000      -0.473532       -12.8855
  67   1.0000      -0.472535       -12.8583
  68   1.0000      -0.468240       -12.7415
  69   1.0000      -0.466801       -12.7023
  70   1.0000      -0.459125       -12.4934
  71   1.0000      -0.454717       -12.3735
  72   1.0000      -0.451221       -12.2784
  73   1.0000      -0.446082       -12.1385
  74   1.0000      -0.443400       -12.0655
  75   1.0000      -0.439644       -11.9633
  76   1.0000      -0.432431       -11.7670
  77   1.0000      -0.431278       -11.7357
  78   1.0000      -0.426923       -11.6172
  79   1.0000      -0.421009       -11.4562
  80   1.0000      -0.419654       -11.4194
  81   1.0000      -0.418840       -11.3972
  82   1.0000      -0.416668       -11.3381
  83   1.0000      -0.413833       -11.2610
  84   1.0000      -0.411413       -11.1951
  85   1.0000      -0.410473       -11.1695
  86   1.0000      -0.405977       -11.0472
  87   1.0000      -0.401623       -10.9287
  88   1.0000      -0.394940       -10.7469
  89   1.0000      -0.391798       -10.6614
  90   1.0000      -0.387075       -10.5329
  91   1.0000      -0.383200       -10.4274
  92   1.0000      -0.372656       -10.1405
  93   1.0000      -0.367887       -10.0107
  94   1.0000      -0.365636        -9.9495
  95   1.0000      -0.343466        -9.3462
  96   1.0000      -0.329009        -8.9528
  97   1.0000      -0.305948        -8.3253
  98   1.0000      -0.265046        -7.2123
  99   1.0000      -0.218619        -5.9489
 100   1.0000      -0.089331        -2.4308
 101   0.0000      -0.013613        -0.3704
 102   0.0000      -0.000673        -0.0183
 103   0.0000       0.031466         0.8562
 104   0.0000       0.044842         1.2202
 105   0.0000       0.070568         1.9202

                 SPIN DOWN ORBITALS
  NO   OCC          E(Eh)            E(eV)
   0   1.0000     -24.659334      -671.0146
   1   1.0000     -24.658405      -670.9893
   2   1.0000     -24.657512      -670.9650
   3   1.0000     -24.656842      -670.9468
   4   1.0000     -24.655999      -670.9239
   5   1.0000     -24.655116      -670.8998
   6   1.0000     -24.654185      -670.8745
   7   1.0000     -24.649922      -670.7585
   8   1.0000     -24.648509      -670.7200
   9   1.0000     -24.641084      -670.5180
  10   1.0000     -24.638948      -670.4599
  11   1.0000     -24.626645      -670.1251
  12   1.0000     -24.624452      -670.0654
  13   1.0000     -24.601034      -669.4282
  14   1.0000     -24.599735      -669.3928
  15   1.0000     -19.041509      -518.1458
  16   1.0000     -18.975177      -516.3408
  17   1.0000     -10.393593      -282.8240
  18   1.0000     -10.340134      -281.3694
  19   1.0000     -10.338324      -281.3201
  20   1.0000     -10.331496      -281.1343
  21   1.0000     -10.319549      -280.8092
  22   1.0000     -10.298778      -280.2440
  23   1.0000     -10.272940      -279.5409
  24   1.0000     -10.160099      -276.4704
  25   1.0000      -1.320052       -35.9204
  26   1.0000      -1.292180       -35.1620
  27   1.0000      -1.276996       -34.7488
  28   1.0000      -1.270904       -34.5830
  29   1.0000      -1.261253       -34.3204
  30   1.0000      -1.244608       -33.8675
  31   1.0000      -1.234679       -33.5973
  32   1.0000      -1.229294       -33.4508
  33   1.0000      -1.226044       -33.3624
  34   1.0000      -1.219298       -33.1788
  35   1.0000      -1.214871       -33.0583
  36   1.0000      -1.211158       -32.9573
  37   1.0000      -1.205333       -32.7988
  38   1.0000      -1.189668       -32.3725
  39   1.0000      -1.160989       -31.5921
  40   1.0000      -1.001107       -27.2415
  41   1.0000      -0.911467       -24.8023
  42   1.0000      -0.816752       -22.2249
  43   1.0000      -0.790296       -21.5051
  44   1.0000      -0.759326       -20.6623
  45   1.0000      -0.726037       -19.7565
  46   1.0000      -0.689006       -18.7488
  47   1.0000      -0.660202       -17.9650
  48   1.0000      -0.638263       -17.3680
  49   1.0000      -0.617825       -16.8119
  50   1.0000      -0.613536       -16.6952
  51   1.0000      -0.607291       -16.5252
  52   1.0000      -0.594521       -16.1777
  53   1.0000      -0.589826       -16.0500
  54   1.0000      -0.588893       -16.0246
  55   1.0000      -0.577799       -15.7227
  56   1.0000      -0.574845       -15.6423
  57   1.0000      -0.564811       -15.3693
  58   1.0000      -0.560325       -15.2472
  59   1.0000      -0.554301       -15.0833
  60   1.0000      -0.549176       -14.9438
  61   1.0000      -0.537374       -14.6227
  62   1.0000      -0.532005       -14.4766
  63   1.0000      -0.510454       -13.8902
  64   1.0000      -0.483034       -13.1440
  65   1.0000      -0.478252       -13.0139
  66   1.0000      -0.473394       -12.8817
  67   1.0000      -0.470213       -12.7952
  68   1.0000      -0.467906       -12.7324
  69   1.0000      -0.466679       -12.6990
  70   1.0000      -0.458798       -12.4845
  71   1.0000      -0.454403       -12.3649
  72   1.0000      -0.451101       -12.2751
  73   1.0000      -0.445925       -12.1342
  74   1.0000      -0.443017       -12.0551
  75   1.0000      -0.439353       -11.9554
  76   1.0000      -0.432297       -11.7634
  77   1.0000      -0.430889       -11.7251
  78   1.0000      -0.425831       -11.5875
  79   1.0000      -0.420944       -11.4545
  80   1.0000      -0.419212       -11.4073
  81   1.0000      -0.416495       -11.3334
  82   1.0000      -0.413686       -11.2570
  83   1.0000      -0.413097       -11.2409
  84   1.0000      -0.411045       -11.1851
  85   1.0000      -0.410394       -11.1674
  86   1.0000      -0.405671       -11.0389
  87   1.0000      -0.400968       -10.9109
  88   1.0000      -0.394344       -10.7306
  89   1.0000      -0.390124       -10.6158
  90   1.0000      -0.386277       -10.5111
  91   1.0000      -0.379365       -10.3231
  92   1.0000      -0.370765       -10.0890
  93   1.0000      -0.366315        -9.9679
  94   1.0000      -0.349614        -9.5135
  95   1.0000      -0.338667        -9.2156
  96   1.0000      -0.319137        -8.6842
  97   1.0000      -0.303103        -8.2478
  98   1.0000      -0.238888        -6.5005
  99   1.0000      -0.214167        -5.8278
 100   0.0000      -0.026677        -0.7259
 101   0.0000      -0.002047        -0.0557
 102   0.0000       0.007524         0.2047
 103   0.0000       0.035960         0.9785
 104   0.0000       0.050301         1.3688

MULLIKEN ATOMIC CHARGES AND SPIN POPULATIONS
--------------------------------------------
   0 C :   -0.010578    0.501199
   1 O :   -0.538281    0.228899
   2 O :   -0.473955    0.035218
   3 H :    0.315718    0.010833
   4 C :    0.399215    0.036210
   5 C :    0.231657    0.111418
   6 C :    0.283600    0.033949
   7 C :    0.289434    0.022432
   8 C :    0.271659    0.009463
   9 C :    0.293949    0.004468
  10 C :    0.407923    0.001878
  11 F :   -0.215391    0.001767
  12 F :   -0.215073    0.002100
  13 F :   -0.189451   -0.000350
  14 F :   -0.185462    0.000529
  15 F :   -0.169518   -0.000641
  16 F :   -0.167646   -0.000173
  17 F :   -0.158949   -0.000213
  18 F :   -0.158950    0.000502
  19 F :   -0.154306    0.000182
  20 F :   -0.153649   -0.000065
  21 F :   -0.149588    0.000102
  22 F :   -0.146344   -0.000018
  23 F :   -0.136961   -0.000040
  24 F :   -0.134627    0.000370
  25 F :   -0.134425   -0.000020
Sum of atomic charges         :   -1.0000000

LOEWDIN ATOMIC CHARGES AND SPIN POPULATIONS
-------------------------------------------
   0 C :   -0.606121    0.383748
   1 O :   -0.106257    0.219974
   2 O :   -0.031647    0.061039
   3 H :    0.175525    0.009308
   4 C :   -0.487893    0.144582
   5 C :   -0.454975    0.071669
   6 C :   -0.463967    0.042302
   7 C :   -0.460475    0.021044
   8 C :   -0.461047    0.010839
   9 C :   -0.466985    0.004840
  10 C :   -0.667324    0.001717
  11 F :    0.134833    0.010127
  12 F :    0.132045    0.010496
  13 F :    0.182919    0.001028
  14 F :    0.186357    0.001413
  15 F :    0.202497    0.000958
  16 F :    0.202392    0.001455
  17 F :    0.214931    0.000452
  18 F :    0.213874    0.000945
  19 F :    0.219841    0.000639
  20 F :    0.220789    0.000297
  21 F :    0.221215    0.000322
  22 F :    0.223554    0.000125
  23 F :    0.224990    0.000037
  24 F :    0.223895    0.000605
  25 F :    0.227034    0.000041

  Mayer bond orders larger than 0.100000
B(  0-C ,  1-O ) :   1.7942 B(  0-C ,  2-O ) :   1.0759 B(  0-C ,  4-C ) :   0.9956
B(  2-O ,  3-H ) :   0.8627 B(  4-C ,  5-C ) :   0.8385 B(  4-C , 11-F ) :   1.0129
B(  4-C , 12-F ) :   1.0129 B(  5-C ,  6-C ) :   0.9072 B(  5-C , 13-F ) :   1.0533
B(  5-C , 14-F ) :   1.0669 B(  6-C ,  7-C ) :   0.9453 B(  6-C , 15-F ) :   1.0702
B(  6-C , 16-F ) :   1.0822 B(  7-C ,  8-C ) :   0.9425 B(  7-C , 17-F ) :   1.0824
B(  7-C , 18-F ) :   1.0874 B(  8-C ,  9-C ) :   0.9426 B(  8-C , 19-F ) :   1.0918
B(  8-C , 20-F ) :   1.0965 B(  9-C , 10-C ) :   0.9713 B(  9-C , 21-F ) :   1.0983
B(  9-C , 22-F ) :   1.1097 B( 10-C , 23-F ) :   1.1594 B( 10-C , 24-F ) :   1.1601
B( 10-C , 25-F ) :   1.1703

Dispersion correction           -0.030981626
FINAL SINGLE POINT ENERGY     -1954.421231960457

DIPOLE MOMENT
-------------

Method             : SCF
Type of density    : Electron Density
Multiplicity       :   2
Irrep              :   0
Energy             : -1954.3902503341544161 Eh
Relativity type    :
Basis              : AO
                                X                 Y                 Z
Electronic contribution:    -22.749946054      -1.918726577       1.716138710
Nuclear contribution   :     15.608435180       2.562959891      -1.243737996
                        -----------------------------------------
Total Dipole Moment    :     -7.141510875       0.644233313       0.472400714
                        -----------------------------------------
Magnitude (a.u.)       :      7.186054312
Magnitude (Debye)      :     18.265498477

VIBRATIONAL FREQUENCIES
-----------------------

Scaling factor for frequencies =  1.000000000  (already applied!)

     0:       0.00 cm**-1
     1:       0.00 cm**-1
     2:       0.00 cm**-1
     3:       0.00 cm**-1
     4:       0.00 cm**-1
     5:       0.00 cm**-1
     6:      24.25 cm**-1
     7:      27.15 cm**-1
     8:      37.85 cm**-1
     9:      40.02 cm**-1
    10:      55.68 cm**-1
    11:      62.74 cm**-1
    12:      66.77 cm**-1
    13:      81.24 cm**-1
    14:     103.26 cm**-1
    15:     120.56 cm**-1
    16:     146.99 cm**-1
    17:     181.94 cm**-1
    18:     185.97 cm**-1
    19:     192.00 cm**-1
    20:     202.03 cm**-1
    21:     220.31 cm**-1
    22:     235.01 cm**-1
    23:     239.28 cm**-1
    24:     249.39 cm**-1
    25:     251.83 cm**-1
    26:     265.76 cm**-1
    27:     276.55 cm**-1
    28:     300.29 cm**-1
    29:     307.79 cm**-1
    30:     326.06 cm**-1
    31:     333.03 cm**-1
    32:     343.24 cm**-1
    33:     351.91 cm**-1
    34:     354.38 cm**-1
    35:     360.09 cm**-1
    36:     366.29 cm**-1
    37:     406.15 cm**-1
    38:     436.50 cm**-1
    39:     458.33 cm**-1
    40:     502.36 cm**-1
    41:     512.79 cm**-1
    42:     514.77 cm**-1
    43:     543.75 cm**-1
    44:     548.14 cm**-1
    45:     557.94 cm**-1
    46:     580.63 cm**-1
    47:     594.15 cm**-1
    48:     609.09 cm**-1
    49:     630.55 cm**-1
    50:     666.87 cm**-1
    51:     678.45 cm**-1
    52:     706.72 cm**-1
    53:     736.44 cm**-1
    54:     798.34 cm**-1
    55:     897.08 cm**-1
    56:     964.19 cm**-1
    57:     997.29 cm**-1
    58:    1018.14 cm**-1
    59:    1079.15 cm**-1
    60:    1086.86 cm**-1
    61:    1092.50 cm**-1
    62:    1096.58 cm**-1
    63:    1111.46 cm**-1
    64:    1120.08 cm**-1
    65:    1121.80 cm**-1
    66:    1133.84 cm**-1
    67:    1145.39 cm**-1
    68:    1149.10 cm**-1
    69:    1158.02 cm**-1
    70:    1171.23 cm**-1
    71:    1196.58 cm**-1
    72:    1221.01 cm**-1
    73:    1255.46 cm**-1
    74:    1260.78 cm**-1
    75:    1311.14 cm**-1
    76:    1546.25 cm**-1
    77:    3690.91 cm**-1

IR SPECTRUM
-----------

 Mode   freq       eps      Int      T**2         TX        TY        TZ
       cm**-1   L/(mol*cm) km/mol    a.u.
----------------------------------------------------------------------------
  6:     24.25   0.000103    0.52  0.001331  ( 0.029810 -0.019304  0.008373)
  7:     27.15   0.000304    1.54  0.003493  (-0.030081  0.008615 -0.050138)
  8:     37.85   0.000254    1.28  0.002096  (-0.005812 -0.045344 -0.002400)
  9:     40.02   0.000179    0.90  0.001393  ( 0.032099  0.014678  0.012139)
 10:     55.68   0.000038    0.19  0.000212  ( 0.000359 -0.013359  0.005807)
 11:     62.74   0.000154    0.78  0.000764  ( 0.026176  0.007145 -0.005250)
 12:     66.77   0.000220    1.11  0.001028  ( 0.027451  0.016486  0.001538)
 13:     81.24   0.000870    4.39  0.003340  ( 0.046169 -0.012413  0.032474)
 14:    103.26   0.003017   15.25  0.009118  ( 0.093938  0.003232 -0.016835)
 15:    120.56   0.001950    9.85  0.005048  (-0.070515 -0.004372 -0.007488)
 16:    146.99   0.001638    8.28  0.003477  ( 0.057741  0.010044  0.006519)
 17:    181.94   0.002556   12.92  0.004384  ( 0.018151  0.001911 -0.063645)
 18:    185.97   0.002711   13.70  0.004549  (-0.065700  0.002888 -0.014983)
 19:    192.00   0.000385    1.94  0.000625  (-0.024436 -0.001688 -0.005006)
 20:    202.03   0.000423    2.14  0.000653  (-0.003216  0.024240 -0.007410)
 21:    220.31   0.000055    0.28  0.000077  ( 0.008422 -0.000318 -0.002520)
 22:    235.01   0.000210    1.06  0.000279  ( 0.014700  0.000362  0.007900)
 23:    239.28   0.000218    1.10  0.000284  (-0.008837 -0.007514  0.012231)
 24:    249.39   0.000034    0.17  0.000042  (-0.000319 -0.000028  0.006478)
 25:    251.83   0.001177    5.95  0.001459  (-0.035358  0.008068 -0.011978)
 26:    265.76   0.059706  301.73  0.070108  ( 0.257054 -0.038609  0.050401)
 27:    276.55   0.001980   10.01  0.002235  ( 0.044552 -0.015801 -0.000062)
 28:    300.29   0.000313    1.58  0.000325  (-0.014658 -0.000991 -0.010466)
 29:    307.79   0.000074    0.37  0.000075  ( 0.004710  0.007238  0.000577)
 30:    326.06   0.000145    0.73  0.000139  ( 0.003773  0.006256 -0.009249)
 31:    333.03   0.012170   61.50  0.011404  ( 0.091354  0.051366 -0.020491)
 32:    343.24   0.004044   20.44  0.003677  ( 0.056072  0.019478 -0.012380)
 33:    351.91   0.001229    6.21  0.001090  (-0.030004 -0.008783 -0.010608)
 34:    354.38   0.001059    5.35  0.000933  (-0.025184 -0.002643  0.017068)
 35:    360.09   0.001502    7.59  0.001302  (-0.030365 -0.019483 -0.000291)
 36:    366.29   0.000380    1.92  0.000323  (-0.001276 -0.017787 -0.002315)
 37:    406.15   0.000301    1.52  0.000231  ( 0.012903 -0.007840 -0.001823)
 38:    436.50   0.021833  110.33  0.015609  (-0.118412 -0.036921  0.014980)
 39:    458.33   0.000481    2.43  0.000327  (-0.010355  0.000778  0.014814)
 40:    502.36   0.002369   11.97  0.001471  ( 0.024091  0.029515 -0.004461)
 41:    512.79   0.002417   12.21  0.001471  ( 0.013453 -0.035888 -0.001317)
 42:    514.77   0.008010   40.48  0.004856  ( 0.066725 -0.018626 -0.007538)
 43:    543.75   0.003265   16.50  0.001874  (-0.035850 -0.023650  0.005425)
 44:    548.14   0.006956   35.15  0.003960  ( 0.062213 -0.006199  0.007169)
 45:    557.94   0.026692  134.89  0.014929  ( 0.117296  0.032744  0.009922)
 46:    580.63   0.000561    2.84  0.000302  (-0.005115 -0.006407 -0.015310)
 47:    594.15   0.002185   11.04  0.001147  ( 0.032001 -0.011076 -0.000833)
 48:    609.09   0.010230   51.70  0.005241  ( 0.070465  0.014276 -0.008487)
 49:    630.55   0.028637  144.72  0.014173  (-0.118153 -0.014579  0.000384)
 50:    666.87   0.020023  101.19  0.009370  (-0.095460  0.012375 -0.010194)
 51:    678.45   0.018886   95.44  0.008687  (-0.092936  0.002244  0.006695)
 52:    706.72   0.001227    6.20  0.000542  (-0.022223  0.006899 -0.000454)
 53:    736.44   0.003959   20.01  0.001678  ( 0.040928  0.000574 -0.001487)
 54:    798.34   0.050810  256.77  0.019861  ( 0.134918  0.036100  0.018847)
 55:    897.08   0.082093  414.86  0.028557  ( 0.165551  0.026774  0.020816)
 56:    964.19   0.094272  476.41  0.030512  ( 0.062093  0.161080  0.026633)
 57:    997.29   0.027506  139.00  0.008607  ( 0.015218  0.004125 -0.091423)
 58:   1018.14   0.005857   29.60  0.001795  (-0.023528 -0.031052  0.016659)
 59:   1079.15   0.039580  200.02  0.011446  (-0.025439 -0.063391 -0.082341)
 60:   1086.86   0.003834   19.38  0.001101  (-0.006138  0.030009 -0.012756)
 61:   1092.50   0.044154  223.14  0.012612  ( 0.102456 -0.036943  0.027388)
 62:   1096.58   0.025617  129.46  0.007290  (-0.036437 -0.027335  0.072216)
 63:   1111.46   0.042481  214.68  0.011927  (-0.007649  0.089574 -0.062011)
 64:   1120.08   0.103087  520.96  0.028721  (-0.054533 -0.122250 -0.103933)
 65:   1121.80   0.063457  320.69  0.017653  (-0.016219 -0.130764 -0.017035)
 66:   1133.84   0.065896  333.01  0.018136  ( 0.008846  0.000498 -0.134380)
 67:   1145.39   0.080035  404.47  0.021806  (-0.050090  0.088526 -0.107050)
 68:   1149.10   0.078991  399.19  0.021452  (-0.038264  0.073757  0.120612)
 69:   1158.02   0.014064   71.07  0.003790  ( 0.004133 -0.040735  0.045973)
 70:   1171.23   0.087412  441.75  0.023290  ( 0.024927  0.049003 -0.142364)
 71:   1196.58   0.035645  180.14  0.009296  (-0.045915  0.059102  0.060785)
 72:   1221.01   0.000666    3.37  0.000170  ( 0.012564 -0.002980 -0.001877)
 73:   1255.46   0.007913   39.99  0.001967  (-0.042013 -0.014202 -0.000290)
 74:   1260.78   0.037251  188.25  0.009220  ( 0.059988 -0.010757 -0.074202)
 75:   1311.14   0.147946  747.66  0.035212  ( 0.186398 -0.008130 -0.020053)
 76:   1546.25   0.166944  843.67  0.033693  (-0.149854  0.049034  0.093978)
 77:   3690.91   0.022513  113.77  0.001903  (-0.034446 -0.019879  0.017936)

--------------------------
THERMOCHEMISTRY AT 298.15K
--------------------------

Temperature         ...   298.15 K
Pressure            ...     1.00 atm
Total Mass          ...   414.06 AMU
Quasi RRHO          ...     True
Cut-Off Frequency   ...     1.00 cm^-1

Throughout the following assumptions are being made:
  (1) The electronic state is orbitally nondegenerate
      but the spin degeneracy is treated
  (2) There are no thermally accessible electronically excited states
  (3) Hindered rotations indicated by low frequency modes are not
      treated as such but are treated as vibrations and this may
      cause some error
  (4) All equations used are the standard statistical mechanics
      equations for an ideal gas
  (5) All vibrations are strictly harmonic

freq.      24.25  E(vib)   ...       0.56
freq.      27.15  E(vib)   ...       0.55
freq.      37.85  E(vib)   ...       0.54
freq.      40.02  E(vib)   ...       0.54
freq.      55.68  E(vib)   ...       0.52
freq.      62.74  E(vib)   ...       0.51
freq.      66.77  E(vib)   ...       0.50
freq.      81.24  E(vib)   ...       0.48
freq.     103.26  E(vib)   ...       0.46
freq.     120.56  E(vib)   ...       0.44
freq.     146.99  E(vib)   ...       0.41
freq.     181.94  E(vib)   ...       0.37
freq.     185.97  E(vib)   ...       0.37
freq.     192.00  E(vib)   ...       0.36
freq.     202.03  E(vib)   ...       0.35
freq.     220.31  E(vib)   ...       0.33
freq.     235.01  E(vib)   ...       0.32
freq.     239.28  E(vib)   ...       0.31
freq.     249.39  E(vib)   ...       0.31
freq.     251.83  E(vib)   ...       0.30
freq.     265.76  E(vib)   ...       0.29
freq.     276.55  E(vib)   ...       0.28
freq.     300.29  E(vib)   ...       0.26
freq.     307.79  E(vib)   ...       0.26
freq.     326.06  E(vib)   ...       0.24
freq.     333.03  E(vib)   ...       0.24
freq.     343.24  E(vib)   ...       0.23
freq.     351.91  E(vib)   ...       0.23
freq.     354.38  E(vib)   ...       0.22
freq.     360.09  E(vib)   ...       0.22
freq.     366.29  E(vib)   ...       0.22
freq.     406.15  E(vib)   ...       0.19
freq.     436.50  E(vib)   ...       0.17
freq.     458.33  E(vib)   ...       0.16
freq.     502.36  E(vib)   ...       0.14
freq.     512.79  E(vib)   ...       0.13
freq.     514.77  E(vib)   ...       0.13
freq.     543.75  E(vib)   ...       0.12
freq.     548.14  E(vib)   ...       0.12
freq.     557.94  E(vib)   ...       0.12
freq.     580.63  E(vib)   ...       0.11
freq.     594.15  E(vib)   ...       0.10
freq.     609.09  E(vib)   ...       0.10
freq.     630.55  E(vib)   ...       0.09
freq.     666.87  E(vib)   ...       0.08
freq.     678.45  E(vib)   ...       0.08
freq.     706.72  E(vib)   ...       0.07
freq.     736.44  E(vib)   ...       0.06
freq.     798.34  E(vib)   ...       0.05
freq.     897.08  E(vib)   ...       0.03
freq.     964.19  E(vib)   ...       0.03
freq.     997.29  E(vib)   ...       0.02
freq.    1018.14  E(vib)   ...       0.02
freq.    1079.15  E(vib)   ...       0.02
freq.    1086.86  E(vib)   ...       0.02
freq.    1092.50  E(vib)   ...       0.02
freq.    1096.58  E(vib)   ...       0.02
freq.    1111.46  E(vib)   ...       0.01
freq.    1120.08  E(vib)   ...       0.01
freq.    1121.80  E(vib)   ...       0.01
freq.    1133.84  E(vib)   ...       0.01
freq.    1145.39  E(vib)   ...       0.01
freq.    1149.10  E(vib)   ...       0.01
freq.    1158.02  E(vib)   ...       0.01
freq.    1171.23  E(vib)   ...       0.01
freq.    1196.58  E(vib)   ...       0.01
freq.    1221.01  E(vib)   ...       0.01
freq.    1255.46  E(vib)   ...       0.01
freq.    1260.78  E(vib)   ...       0.01
freq.    1311.14  E(vib)   ...       0.01
freq.    1546.25  E(vib)   ...       0.00
freq.    3690.91  E(vib)   ...       0.00

------------
INNER ENERGY
------------

The inner energy is: U= E(el) + E(ZPE) + E(vib) + E(rot) + E(trans)
    E(el)   - is the total energy from the electronic structure calculation
              = E(kin-el) + E(nuc-el) + E(el-el) + E(nuc-nuc)
    E(ZPE)  - the the zero temperature vibrational energy from the frequency calculation
    E(vib)  - the the finite temperature correction to E(ZPE) due to population
              of excited vibrational states
    E(rot)  - is the rotational thermal energy
    E(trans)- is the translational thermal energy

Summary of contributions to the inner energy U:
Electronic energy                ...  -1954.42123196 Eh
Zero point energy                ...      0.10392200 Eh      65.21 kcal/mol
Thermal vibrational correction   ...      0.02161637 Eh      13.56 kcal/mol
Thermal rotational correction    ...      0.00141627 Eh       0.89 kcal/mol
Thermal translational correction ...      0.00141627 Eh       0.89 kcal/mol
-----------------------------------------------------------------------
Total thermal energy                  -1954.29286105 Eh

Summary of corrections to the electronic energy:
(perhaps to be used in another calculation)
Total thermal correction                  0.02444892 Eh      15.34 kcal/mol
Non-thermal (ZPE) correction              0.10392200 Eh      65.21 kcal/mol
-----------------------------------------------------------------------
Total correction                          0.12837091 Eh      80.55 kcal/mol

--------
ENTHALPY
--------

The enthalpy is H = U + kB*T
                kB is Boltzmann's constant
Total thermal energy              ...  -1954.29286105 Eh
Thermal Enthalpy correction       ...      0.00094421 Eh       0.59 kcal/mol
-----------------------------------------------------------------------
Total Enthalpy                    ...  -1954.29191684 Eh

Note: Only C1 symmetry has been detected, increase convergence thresholds
      if your molecule has a higher symmetry. Symmetry factor of 1.0 is
      used for the rotational entropy correction.

Note: Rotational entropy computed according to Herzberg
Infrared and Raman Spectra, Chapter V,1, Van Nostrand Reinhold, 1945
Point Group:  C1, Symmetry Number:   1
Rotational constants in cm-1:     0.021049     0.003634     0.003595

Vibrational entropy computed according to the QRRHO of S. Grimme
Chem.Eur.J. 2012 18 9955 using a reference frequency of 100.0 cm-1

-------
ENTROPY
-------

The entropy contributions are T*S = T*(S(el)+S(vib)+S(rot)+S(trans))
     S(el)   - electronic entropy
     S(vib)  - vibrational entropy
     S(rot)  - rotational entropy
     S(trans)- translational entropy
The entropies will be listed as multiplied by the temperature to get
units of energy

                             ****ORCA TERMINATED NORMALLY****
TOTAL RUN TIME: 0 days 0 hours 22 minutes 0 seconds 821 msec
