                         Program Version 6.0.1  -  RELEASE   -
|  1> !r2scanh def2-TZVP freq d3 TightSCF SlowConv defgrid2
|  2>
|  3> %pal
|  4> nprocs 20
|  5> end
|  6>
|  7> %scf
|  8> MaxIter 1500
|  9> end
| 10>
| 11> %maxcore 8000
| 12>
| 13> !CPCM
| 14> %cpcm smd true
| 15> SMDsolvent "ACETONITRILE"
| 16> end
| 17>
| 18> * xyz 0 2
| 19> 6        4.236637000      0.505276000      0.328427000
| 20> 8        5.182230000     -0.137695000     -0.327675000
| 21> 8        4.243585000      1.646921000      0.682964000
| 22> 6        3.018026000     -0.407770000      0.594970000
| 23> 6        1.919770000     -0.167918000     -0.474551000
| 24> 6        0.779737000     -1.234734000     -0.483853000
| 25> 6       -0.442622000     -0.751042000     -1.191528000
| 26> 6       -1.862208000     -0.767476000     -0.709709000
| 27> 6       -2.249624000      0.475033000      0.140229000
| 28> 6       -3.736082000      0.572324000      0.567329000
| 29> 9        3.363198000     -1.707106000      0.578443000
| 30> 9        2.521065000     -0.108584000      1.804785000
| 31> 9        1.378580000      1.042127000     -0.254790000
| 32> 9        2.506571000     -0.157563000     -1.685053000
| 33> 9        1.268007000     -2.343627000     -1.089464000
| 34> 9        0.472062000     -1.555934000      0.785668000
| 35> 9       -0.234262000     -0.148325000     -2.343858000
| 36> 9       -2.087903000     -1.869100000      0.029787000
| 37> 9       -2.666995000     -0.790698000     -1.791706000
| 38> 9       -1.956872000      1.574332000     -0.574141000
| 39> 9       -1.509865000      0.471648000      1.260596000
| 40> 9       -4.087170000     -0.484596000      1.289534000
| 41> 9       -3.890897000      1.665611000      1.308558000
| 42> 9       -4.532044000      0.660602000     -0.489724000
| 43> 1        5.919979000      0.476808000     -0.500753000
| 44> *
| 45>
| 46>                          ****END OF INPUT****

CARTESIAN COORDINATES (ANGSTROEM)
---------------------------------
  C      4.236637    0.505276    0.328427
  O      5.182230   -0.137695   -0.327675
  O      4.243585    1.646921    0.682964
  C      3.018026   -0.407770    0.594970
  C      1.919770   -0.167918   -0.474551
  C      0.779737   -1.234734   -0.483853
  C     -0.442622   -0.751042   -1.191528
  C     -1.862208   -0.767476   -0.709709
  C     -2.249624    0.475033    0.140229
  C     -3.736082    0.572324    0.567329
  F      3.363198   -1.707106    0.578443
  F      2.521065   -0.108584    1.804785
  F      1.378580    1.042127   -0.254790
  F      2.506571   -0.157563   -1.685053
  F      1.268007   -2.343627   -1.089464
  F      0.472062   -1.555934    0.785668
  F     -0.234262   -0.148325   -2.343858
  F     -2.087903   -1.869100    0.029787
  F     -2.666995   -0.790698   -1.791706
  F     -1.956872    1.574332   -0.574141
  F     -1.509865    0.471648    1.260596
  F     -4.087170   -0.484596    1.289534
  F     -3.890897    1.665611    1.308558
  F     -4.532044    0.660602   -0.489724
  H      5.919979    0.476808   -0.500753

 Total Charge           Charge          ....    0
 Multiplicity           Mult            ....    2
 Number of Electrons    NEL             ....  191
 Basis Dimension        Dim             ....  750

ORBITAL ENERGIES
----------------
                 SPIN UP ORBITALS
  NO   OCC          E(Eh)            E(eV)
   0   1.0000     -24.747544      -673.4149
   1   1.0000     -24.731861      -672.9881
   2   1.0000     -24.731755      -672.9853
   3   1.0000     -24.731705      -672.9839
   4   1.0000     -24.731639      -672.9821
   5   1.0000     -24.730765      -672.9583
   6   1.0000     -24.730477      -672.9505
   7   1.0000     -24.730466      -672.9502
   8   1.0000     -24.729319      -672.9190
   9   1.0000     -24.727461      -672.8684
  10   1.0000     -24.726763      -672.8494
  11   1.0000     -24.722317      -672.7284
  12   1.0000     -24.721315      -672.7012
  13   1.0000     -24.720743      -672.6856
  14   1.0000     -19.196783      -522.3710
  15   1.0000     -19.140495      -520.8394
  16   1.0000     -10.440187      -284.0919
  17   1.0000     -10.388651      -282.6896
  18   1.0000     -10.386871      -282.6411
  19   1.0000     -10.382571      -282.5241
  20   1.0000     -10.381368      -282.4914
  21   1.0000     -10.374933      -282.3163
  22   1.0000     -10.325850      -280.9807
  23   1.0000     -10.313527      -280.6453
  24   1.0000      -1.361335       -37.0438
  25   1.0000      -1.333952       -36.2987
  26   1.0000      -1.326979       -36.1089
  27   1.0000      -1.314459       -35.7682
  28   1.0000      -1.310365       -35.6568
  29   1.0000      -1.308426       -35.6041
  30   1.0000      -1.302324       -35.4380
  31   1.0000      -1.272287       -34.6207
  32   1.0000      -1.266125       -34.4530
  33   1.0000      -1.265360       -34.4322
  34   1.0000      -1.261235       -34.3199
  35   1.0000      -1.254381       -34.1334
  36   1.0000      -1.251974       -34.0680
  37   1.0000      -1.249791       -34.0085
  38   1.0000      -1.152442       -31.3595
  39   1.0000      -1.065323       -28.9889
  40   1.0000      -0.860767       -23.4227
  41   1.0000      -0.831893       -22.6370
  42   1.0000      -0.811095       -22.0710
  43   1.0000      -0.774224       -21.0677
  44   1.0000      -0.729299       -19.8452
  45   1.0000      -0.698012       -18.9939
  46   1.0000      -0.668923       -18.2023
  47   1.0000      -0.660485       -17.9727
  48   1.0000      -0.638945       -17.3866
  49   1.0000      -0.635278       -17.2868
  50   1.0000      -0.629775       -17.1371
  51   1.0000      -0.624562       -16.9952
  52   1.0000      -0.620510       -16.8849
  53   1.0000      -0.613369       -16.6906
  54   1.0000      -0.605240       -16.4694
  55   1.0000      -0.601325       -16.3629
  56   1.0000      -0.598049       -16.2737
  57   1.0000      -0.589528       -16.0419
  58   1.0000      -0.581413       -15.8211
  59   1.0000      -0.578386       -15.7387
  60   1.0000      -0.569351       -15.4928
  61   1.0000      -0.561623       -15.2825
  62   1.0000      -0.528473       -14.3805
  63   1.0000      -0.512015       -13.9326
  64   1.0000      -0.498928       -13.5765
  65   1.0000      -0.493759       -13.4359
  66   1.0000      -0.492833       -13.4107
  67   1.0000      -0.491573       -13.3764
  68   1.0000      -0.490405       -13.3446
  69   1.0000      -0.482045       -13.1171
  70   1.0000      -0.479073       -13.0362
  71   1.0000      -0.477510       -12.9937
  72   1.0000      -0.472742       -12.8640
  73   1.0000      -0.469628       -12.7792
  74   1.0000      -0.465675       -12.6717
  75   1.0000      -0.465347       -12.6627
  76   1.0000      -0.460988       -12.5441
  77   1.0000      -0.454017       -12.3544
  78   1.0000      -0.451864       -12.2958
  79   1.0000      -0.447855       -12.1868
  80   1.0000      -0.445866       -12.1326
  81   1.0000      -0.443955       -12.0806
  82   1.0000      -0.438413       -11.9298
  83   1.0000      -0.432713       -11.7747
  84   1.0000      -0.432067       -11.7571
  85   1.0000      -0.430912       -11.7257
  86   1.0000      -0.427642       -11.6367
  87   1.0000      -0.426509       -11.6059
  88   1.0000      -0.423148       -11.5144
  89   1.0000      -0.414724       -11.2852
  90   1.0000      -0.400233       -10.8909
  91   1.0000      -0.368137       -10.0175
  92   1.0000      -0.351412        -9.5624
  93   1.0000      -0.347631        -9.4595
  94   1.0000      -0.303898        -8.2695
  95   1.0000      -0.270041        -7.3482
  96   0.0000      -0.061065        -1.6617
  97   0.0000      -0.004792        -0.1304
  98   0.0000       0.019071         0.5190
  99   0.0000       0.036561         0.9949
 100   0.0000       0.043427         1.1817

                 SPIN DOWN ORBITALS
  NO   OCC          E(Eh)            E(eV)
   0   1.0000     -24.742372      -673.2742
   1   1.0000     -24.731866      -672.9883
   2   1.0000     -24.731758      -672.9854
   3   1.0000     -24.731701      -672.9838
   4   1.0000     -24.731621      -672.9816
   5   1.0000     -24.730702      -672.9566
   6   1.0000     -24.730342      -672.9468
   7   1.0000     -24.730322      -672.9463
   8   1.0000     -24.729162      -672.9147
   9   1.0000     -24.726886      -672.8528
  10   1.0000     -24.726224      -672.8348
  11   1.0000     -24.722320      -672.7285
  12   1.0000     -24.720735      -672.6854
  13   1.0000     -24.719734      -672.6581
  14   1.0000     -19.196779      -522.3709
  15   1.0000     -19.140469      -520.8386
  16   1.0000     -10.440025      -284.0875
  17   1.0000     -10.389798      -282.7208
  18   1.0000     -10.387893      -282.6689
  19   1.0000     -10.381788      -282.5028
  20   1.0000     -10.380900      -282.4786
  21   1.0000     -10.374883      -282.3149
  22   1.0000     -10.325830      -280.9801
  23   1.0000     -10.296533      -280.1829
  24   1.0000      -1.361177       -37.0395
  25   1.0000      -1.332865       -36.2691
  26   1.0000      -1.326122       -36.0856
  27   1.0000      -1.312812       -35.7234
  28   1.0000      -1.309530       -35.6341
  29   1.0000      -1.308135       -35.5962
  30   1.0000      -1.294912       -35.2363
  31   1.0000      -1.272141       -34.6167
  32   1.0000      -1.265924       -34.4475
  33   1.0000      -1.264902       -34.4197
  34   1.0000      -1.260903       -34.3109
  35   1.0000      -1.253418       -34.1072
  36   1.0000      -1.250500       -34.0278
  37   1.0000      -1.249423       -33.9985
  38   1.0000      -1.152418       -31.3589
  39   1.0000      -1.065287       -28.9879
  40   1.0000      -0.846375       -23.0310
  41   1.0000      -0.830571       -22.6010
  42   1.0000      -0.802942       -21.8492
  43   1.0000      -0.771985       -21.0068
  44   1.0000      -0.723764       -19.6946
  45   1.0000      -0.696230       -18.9454
  46   1.0000      -0.662964       -18.0402
  47   1.0000      -0.660236       -17.9659
  48   1.0000      -0.636250       -17.3133
  49   1.0000      -0.633457       -17.2373
  50   1.0000      -0.629073       -17.1180
  51   1.0000      -0.623575       -16.9683
  52   1.0000      -0.619353       -16.8534
  53   1.0000      -0.611106       -16.6290
  54   1.0000      -0.604313       -16.4442
  55   1.0000      -0.599725       -16.3193
  56   1.0000      -0.596059       -16.2196
  57   1.0000      -0.588161       -16.0047
  58   1.0000      -0.580458       -15.7951
  59   1.0000      -0.575963       -15.6727
  60   1.0000      -0.567749       -15.4492
  61   1.0000      -0.561112       -15.2686
  62   1.0000      -0.512097       -13.9349
  63   1.0000      -0.503644       -13.7049
  64   1.0000      -0.497061       -13.5257
  65   1.0000      -0.493448       -13.4274
  66   1.0000      -0.491330       -13.3698
  67   1.0000      -0.490434       -13.3454
  68   1.0000      -0.486401       -13.2356
  69   1.0000      -0.481595       -13.1049
  70   1.0000      -0.478040       -13.0081
  71   1.0000      -0.475406       -12.9365
  72   1.0000      -0.472259       -12.8508
  73   1.0000      -0.469031       -12.7630
  74   1.0000      -0.464785       -12.6474
  75   1.0000      -0.463485       -12.6121
  76   1.0000      -0.458638       -12.4802
  77   1.0000      -0.451912       -12.2971
  78   1.0000      -0.450988       -12.2720
  79   1.0000      -0.447030       -12.1643
  80   1.0000      -0.445431       -12.1208
  81   1.0000      -0.442917       -12.0524
  82   1.0000      -0.438125       -11.9220
  83   1.0000      -0.431813       -11.7502
  84   1.0000      -0.431078       -11.7302
  85   1.0000      -0.429632       -11.6909
  86   1.0000      -0.427191       -11.6245
  87   1.0000      -0.426242       -11.5986
  88   1.0000      -0.422079       -11.4853
  89   1.0000      -0.413151       -11.2424
  90   1.0000      -0.398355       -10.8398
  91   1.0000      -0.364304        -9.9132
  92   1.0000      -0.351026        -9.5519
  93   1.0000      -0.345211        -9.3937
  94   1.0000      -0.303283        -8.2528
  95   0.0000      -0.129280        -3.5179
  96   0.0000      -0.059934        -1.6309
  97   0.0000      -0.001959        -0.0533
  98   0.0000       0.021727         0.5912
  99   0.0000       0.041414         1.1269

MULLIKEN ATOMIC CHARGES AND SPIN POPULATIONS
--------------------------------------------
   0 C :    0.283098    0.000861
   1 O :   -0.365332   -0.000038
   2 O :   -0.327570    0.000836
   3 C :    0.413586    0.002185
   4 C :    0.287840    0.008815
   5 C :    0.371390   -0.007456
   6 C :    0.096751    0.848016
   7 C :    0.376008   -0.034821
   8 C :    0.317281    0.031396
   9 C :    0.477049    0.005643
  10 F :   -0.173972   -0.000057
  11 F :   -0.171285    0.000194
  12 F :   -0.170613    0.000696
  13 F :   -0.170664    0.002136
  14 F :   -0.170884    0.026772
  15 F :   -0.173276    0.001923
  16 F :   -0.143253    0.091783
  17 F :   -0.167786    0.008606
  18 F :   -0.168651    0.009202
  19 F :   -0.170276    0.000172
  20 F :   -0.169649    0.000309
  21 F :   -0.156858   -0.000058
  22 F :   -0.156003    0.002821
  23 F :   -0.155894   -0.000039
  24 H :    0.388964    0.000103
Sum of atomic charges         :    0.0000000

LOEWDIN ATOMIC CHARGES AND SPIN POPULATIONS
-------------------------------------------
   0 C :   -0.496679    0.000839
   1 O :    0.161078    0.000075
   2 O :    0.133439    0.000695
   3 C :   -0.465078    0.002596
   4 C :   -0.461624    0.013114
   5 C :   -0.488693    0.059197
   6 C :   -0.161784    0.664800
   7 C :   -0.492678    0.060241
   8 C :   -0.475966    0.025824
   9 C :   -0.678379    0.005238
  10 F :    0.217200   -0.000017
  11 F :    0.220708    0.000239
  12 F :    0.230419    0.001601
  13 F :    0.226121    0.002656
  14 F :    0.206976    0.028098
  15 F :    0.228185    0.003474
  16 F :    0.268732    0.107972
  17 F :    0.224246    0.009867
  18 F :    0.221740    0.009209
  19 F :    0.227771    0.000481
  20 F :    0.228432    0.000761
  21 F :    0.231020   -0.000019
  22 F :    0.227471    0.002980
  23 F :    0.232256    0.000012
  24 H :    0.235088    0.000067

  Mayer bond orders larger than 0.100000
B(  0-C ,  1-O ) :   1.2941 B(  0-C ,  2-O ) :   2.0400 B(  0-C ,  3-C ) :   0.8796
B(  1-O , 24-H ) :   0.8171 B(  3-C ,  4-C ) :   0.9374 B(  3-C , 10-F ) :   1.0835
B(  3-C , 11-F ) :   1.0976 B(  4-C ,  5-C ) :   0.9167 B(  4-C , 12-F ) :   1.0739
B(  4-C , 13-F ) :   1.0716 B(  5-C ,  6-C ) :   1.0487 B(  5-C , 14-F ) :   1.0767
B(  5-C , 15-F ) :   1.0631 B(  6-C ,  7-C ) :   0.9943 B(  6-C , 16-F ) :   1.1101
B(  7-C ,  8-C ) :   0.9266 B(  7-C , 17-F ) :   1.0930 B(  7-C , 18-F ) :   1.0786
B(  8-C ,  9-C ) :   0.9466 B(  8-C , 19-F ) :   1.0685 B(  8-C , 20-F ) :   1.0748
B(  9-C , 21-F ) :   1.1361 B(  9-C , 22-F ) :   1.1281 B(  9-C , 23-F ) :   1.1398

Dispersion correction           -0.008458400
FINAL SINGLE POINT ENERGY     -1853.569370425950

DIPOLE MOMENT
-------------

Method             : SCF
Type of density    : Electron Density
Multiplicity       :   2
Irrep              :   0
Energy             : -1853.5609120255451217 Eh
Relativity type    :
Basis              : AO
                                X                 Y                 Z
Electronic contribution:    -13.335878393      -2.059513793      -0.321233655
Nuclear contribution   :     14.366994987       1.879947176      -0.346411889
                        -----------------------------------------
Total Dipole Moment    :      1.031116594      -0.179566618      -0.667645545
                        -----------------------------------------
Magnitude (a.u.)       :      1.241449223
Magnitude (Debye)      :      3.155513153

VIBRATIONAL FREQUENCIES
-----------------------

Scaling factor for frequencies =  1.000000000  (already applied!)

     0:       0.00 cm**-1
     1:       0.00 cm**-1
     2:       0.00 cm**-1
     3:       0.00 cm**-1
     4:       0.00 cm**-1
     5:       0.00 cm**-1
     6:      25.61 cm**-1
     7:      31.66 cm**-1
     8:      37.73 cm**-1
     9:      47.28 cm**-1
    10:      58.73 cm**-1
    11:      63.53 cm**-1
    12:      71.96 cm**-1
    13:      83.68 cm**-1
    14:     102.62 cm**-1
    15:     127.39 cm**-1
    16:     150.36 cm**-1
    17:     184.96 cm**-1
    18:     189.89 cm**-1
    19:     207.72 cm**-1
    20:     214.66 cm**-1
    21:     224.46 cm**-1
    22:     230.36 cm**-1
    23:     241.85 cm**-1
    24:     260.81 cm**-1
    25:     281.79 cm**-1
    26:     286.58 cm**-1
    27:     313.71 cm**-1
    28:     334.94 cm**-1
    29:     341.91 cm**-1
    30:     357.29 cm**-1
    31:     369.93 cm**-1
    32:     375.58 cm**-1
    33:     378.99 cm**-1
    34:     397.90 cm**-1
    35:     432.43 cm**-1
    36:     470.51 cm**-1
    37:     509.63 cm**-1
    38:     528.62 cm**-1
    39:     536.44 cm**-1
    40:     554.16 cm**-1
    41:     575.77 cm**-1
    42:     586.88 cm**-1
    43:     603.02 cm**-1
    44:     616.82 cm**-1
    45:     632.85 cm**-1
    46:     644.60 cm**-1
    47:     685.64 cm**-1
    48:     702.86 cm**-1
    49:     730.93 cm**-1
    50:     769.27 cm**-1
    51:     790.69 cm**-1
    52:     877.88 cm**-1
    53:    1007.96 cm**-1
    54:    1081.42 cm**-1
    55:    1114.17 cm**-1
    56:    1132.28 cm**-1
    57:    1146.90 cm**-1
    58:    1154.07 cm**-1
    59:    1165.86 cm**-1
    60:    1166.51 cm**-1
    61:    1172.78 cm**-1
    62:    1178.79 cm**-1
    63:    1187.47 cm**-1
    64:    1207.81 cm**-1
    65:    1209.20 cm**-1
    66:    1247.82 cm**-1
    67:    1258.04 cm**-1
    68:    1271.24 cm**-1
    69:    1333.11 cm**-1
    70:    1352.17 cm**-1
    71:    1402.28 cm**-1
    72:    1428.27 cm**-1
    73:    1843.87 cm**-1
    74:    3648.05 cm**-1

IR SPECTRUM
-----------

 Mode   freq       eps      Int      T**2         TX        TY        TZ
       cm**-1   L/(mol*cm) km/mol    a.u.
----------------------------------------------------------------------------
  6:     25.61   0.000025    0.12  0.000301  ( 0.004916  0.012463  0.011002)
  7:     31.66   0.000062    0.31  0.000612  (-0.003919  0.021805 -0.010993)
  8:     37.73   0.000003    0.02  0.000027  (-0.000836 -0.004904 -0.001554)
  9:     47.28   0.000266    1.34  0.001755  (-0.000249  0.039958 -0.012583)
 10:     58.73   0.000075    0.38  0.000396  (-0.006444 -0.010571 -0.015590)
 11:     63.53   0.000797    4.03  0.003917  (-0.029488  0.007534 -0.054683)
 12:     71.96   0.000020    0.10  0.000086  ( 0.007392  0.001466  0.005415)
 13:     83.68   0.000117    0.59  0.000438  ( 0.007374  0.017467  0.008870)
 14:    102.62   0.000018    0.09  0.000055  (-0.000151 -0.004234 -0.006054)
 15:    127.39   0.000312    1.58  0.000763  (-0.017863 -0.008199  0.019421)
 16:    150.36   0.000445    2.25  0.000924  (-0.021352  0.010658 -0.018835)
 17:    184.96   0.000468    2.36  0.000789  ( 0.019538 -0.002399 -0.020031)
 18:    189.89   0.000693    3.50  0.001138  ( 0.014113 -0.006807 -0.029876)
 19:    207.72   0.001011    5.11  0.001519  (-0.023483  0.029985  0.008269)
 20:    214.66   0.000588    2.97  0.000855  ( 0.008896 -0.003812  0.027586)
 21:    224.46   0.000306    1.54  0.000425  ( 0.002027 -0.007208  0.019209)
 22:    230.36   0.000060    0.30  0.000082  ( 0.000821  0.005566  0.007073)
 23:    241.85   0.000103    0.52  0.000133  ( 0.002822 -0.006368 -0.009194)
 24:    260.81   0.000420    2.12  0.000503  (-0.018199 -0.012455  0.004098)
 25:    281.79   0.000691    3.49  0.000765  (-0.023473  0.014297  0.003177)
 26:    286.58   0.000302    1.53  0.000329  ( 0.008682  0.011244  0.011294)
 27:    313.71   0.000014    0.07  0.000013  ( 0.003036 -0.001927 -0.000711)
 28:    334.94   0.000039    0.20  0.000037  (-0.004761 -0.003559 -0.001206)
 29:    341.91   0.000240    1.21  0.000219  (-0.011613 -0.006472 -0.006472)
 30:    357.29   0.000318    1.61  0.000278  ( 0.001905 -0.010674 -0.012670)
 31:    369.93   0.000007    0.04  0.000006  ( 0.000666 -0.001380 -0.001898)
 32:    375.58   0.000031    0.16  0.000026  ( 0.001156  0.002841  0.004085)
 33:    378.99   0.000563    2.85  0.000464  ( 0.010000  0.019021  0.001323)
 34:    397.90   0.000410    2.07  0.000321  ( 0.012196 -0.011360  0.006588)
 35:    432.43   0.000453    2.29  0.000327  (-0.016892 -0.005022  0.004017)
 36:    470.51   0.000388    1.96  0.000258  (-0.012034 -0.010591 -0.000830)
 37:    509.63   0.002479   12.53  0.001518  ( 0.028566  0.016190 -0.020974)
 38:    528.62   0.001978    9.99  0.001168  ( 0.021568 -0.012116 -0.023571)
 39:    536.44   0.001898    9.59  0.001104  ( 0.013196 -0.027747 -0.012663)
 40:    554.16   0.007733   39.08  0.004355  (-0.063714 -0.014060  0.009887)
 41:    575.77   0.010001   50.54  0.005420  ( 0.029951 -0.031925  0.059195)
 42:    586.88   0.011413   57.68  0.006069  ( 0.075039  0.020275 -0.005189)
 43:    603.02   0.004978   25.16  0.002576  (-0.015074  0.019164 -0.044516)
 44:    616.82   0.004052   20.47  0.002050  ( 0.018044 -0.019213  0.036811)
 45:    632.85   0.024760  125.13  0.012209  (-0.109477  0.014484 -0.003778)
 46:    644.60   0.034716  175.44  0.016807  ( 0.100727 -0.006568  0.081348)
 47:    685.64   0.006146   31.06  0.002797  ( 0.046464 -0.011515 -0.022493)
 48:    702.86   0.001614    8.16  0.000717  (-0.001833 -0.025308  0.008539)
 49:    730.93   0.015181   76.72  0.006481  ( 0.070129 -0.026841 -0.029032)
 50:    769.27   0.007051   35.63  0.002860  ( 0.010847 -0.003711 -0.052239)
 51:    790.69   0.007477   37.79  0.002951  (-0.043855 -0.008236  0.030983)
 52:    877.88   0.027961  141.31  0.009940  ( 0.017943 -0.071317 -0.067316)
 53:   1007.96   0.005197   26.27  0.001609  ( 0.026379 -0.016723 -0.025171)
 54:   1081.42   0.039555  199.89  0.011414  (-0.052657  0.092465  0.009579)
 55:   1114.17   0.036176  182.82  0.010132  ( 0.098389  0.016793 -0.013040)
 56:   1132.28   0.029767  150.43  0.008204  ( 0.048118  0.064065  0.042242)
 57:   1146.90   0.005720   28.91  0.001556  ( 0.020106 -0.010243  0.032360)
 58:   1154.07   0.086349  436.37  0.023349  (-0.078767 -0.005216  0.130834)
 59:   1165.86   0.065358  330.29  0.017494  ( 0.051306 -0.119339 -0.024905)
 60:   1166.51   0.012807   64.72  0.003426  ( 0.004386 -0.039235  0.043216)
 61:   1172.78   0.066257  334.83  0.017630  ( 0.076876 -0.107237 -0.014848)
 62:   1178.79   0.113582  574.00  0.030069  (-0.015451 -0.036051  0.168909)
 63:   1187.47   0.105064  530.95  0.027610  ( 0.053977  0.154285  0.029885)
 64:   1207.81   0.084066  424.83  0.021720  ( 0.042833 -0.062804  0.126258)
 65:   1209.20   0.022352  112.96  0.005768  (-0.016784 -0.026928  0.069004)
 66:   1247.82   0.003835   19.38  0.000959  ( 0.023455  0.007665  0.018715)
 67:   1258.04   0.006523   32.96  0.001618  (-0.002487  0.036301  0.017148)
 68:   1271.24   0.018193   91.94  0.004466  ( 0.002878 -0.037678  0.055119)
 69:   1333.11   0.016774   84.77  0.003927  (-0.017561  0.018916  0.057099)
 70:   1352.17   0.032136  162.40  0.007417  ( 0.083320 -0.020805 -0.006447)
 71:   1402.28   0.021070  106.48  0.004689  ( 0.060961 -0.007526  0.030267)
 72:   1428.27   0.013252   66.97  0.002895  (-0.042008  0.016658  0.029212)
 73:   1843.87   0.091755  463.69  0.015529  ( 0.019530 -0.110296 -0.054611)
 74:   3648.05   0.050827  256.86  0.004348  (-0.059093 -0.021033  0.020333)

--------------------------
THERMOCHEMISTRY AT 298.15K
--------------------------

Temperature         ...   298.15 K
Pressure            ...     1.00 atm
Total Mass          ...   395.07 AMU
Quasi RRHO          ...     True
Cut-Off Frequency   ...     1.00 cm^-1

Throughout the following assumptions are being made:
  (1) The electronic state is orbitally nondegenerate
      but the spin degeneracy is treated
  (2) There are no thermally accessible electronically excited states
  (3) Hindered rotations indicated by low frequency modes are not
      treated as such but are treated as vibrations and this may
      cause some error
  (4) All equations used are the standard statistical mechanics
      equations for an ideal gas
  (5) All vibrations are strictly harmonic

freq.      25.61  E(vib)   ...       0.56
freq.      31.66  E(vib)   ...       0.55
freq.      37.73  E(vib)   ...       0.54
freq.      47.28  E(vib)   ...       0.53
freq.      58.73  E(vib)   ...       0.51
freq.      63.53  E(vib)   ...       0.51
freq.      71.96  E(vib)   ...       0.50
freq.      83.68  E(vib)   ...       0.48
freq.     102.62  E(vib)   ...       0.46
freq.     127.39  E(vib)   ...       0.43
freq.     150.36  E(vib)   ...       0.40
freq.     184.96  E(vib)   ...       0.37
freq.     189.89  E(vib)   ...       0.36
freq.     207.72  E(vib)   ...       0.34
freq.     214.66  E(vib)   ...       0.34
freq.     224.46  E(vib)   ...       0.33
freq.     230.36  E(vib)   ...       0.32
freq.     241.85  E(vib)   ...       0.31
freq.     260.81  E(vib)   ...       0.30
freq.     281.79  E(vib)   ...       0.28
freq.     286.58  E(vib)   ...       0.27
freq.     313.71  E(vib)   ...       0.25
freq.     334.94  E(vib)   ...       0.24
freq.     341.91  E(vib)   ...       0.23
freq.     357.29  E(vib)   ...       0.22
freq.     369.93  E(vib)   ...       0.21
freq.     375.58  E(vib)   ...       0.21
freq.     378.99  E(vib)   ...       0.21
freq.     397.90  E(vib)   ...       0.20
freq.     432.43  E(vib)   ...       0.18
freq.     470.51  E(vib)   ...       0.15
freq.     509.63  E(vib)   ...       0.14
freq.     528.62  E(vib)   ...       0.13
freq.     536.44  E(vib)   ...       0.12
freq.     554.16  E(vib)   ...       0.12
freq.     575.77  E(vib)   ...       0.11
freq.     586.88  E(vib)   ...       0.11
freq.     603.02  E(vib)   ...       0.10
freq.     616.82  E(vib)   ...       0.09
freq.     632.85  E(vib)   ...       0.09
freq.     644.60  E(vib)   ...       0.09
freq.     685.64  E(vib)   ...       0.07
freq.     702.86  E(vib)   ...       0.07
freq.     730.93  E(vib)   ...       0.06
freq.     769.27  E(vib)   ...       0.06
freq.     790.69  E(vib)   ...       0.05
freq.     877.88  E(vib)   ...       0.04
freq.    1007.96  E(vib)   ...       0.02
freq.    1081.42  E(vib)   ...       0.02
freq.    1114.17  E(vib)   ...       0.01
freq.    1132.28  E(vib)   ...       0.01
freq.    1146.90  E(vib)   ...       0.01
freq.    1154.07  E(vib)   ...       0.01
freq.    1165.86  E(vib)   ...       0.01
freq.    1166.51  E(vib)   ...       0.01
freq.    1172.78  E(vib)   ...       0.01
freq.    1178.79  E(vib)   ...       0.01
freq.    1187.47  E(vib)   ...       0.01
freq.    1207.81  E(vib)   ...       0.01
freq.    1209.20  E(vib)   ...       0.01
freq.    1247.82  E(vib)   ...       0.01
freq.    1258.04  E(vib)   ...       0.01
freq.    1271.24  E(vib)   ...       0.01
freq.    1333.11  E(vib)   ...       0.01
freq.    1352.17  E(vib)   ...       0.01
freq.    1402.28  E(vib)   ...       0.00
freq.    1428.27  E(vib)   ...       0.00
freq.    1843.87  E(vib)   ...       0.00
freq.    3648.05  E(vib)   ...       0.00

------------
INNER ENERGY
------------

The inner energy is: U= E(el) + E(ZPE) + E(vib) + E(rot) + E(trans)
    E(el)   - is the total energy from the electronic structure calculation
              = E(kin-el) + E(nuc-el) + E(el-el) + E(nuc-nuc)
    E(ZPE)  - the the zero temperature vibrational energy from the frequency calculation
    E(vib)  - the the finite temperature correction to E(ZPE) due to population
              of excited vibrational states
    E(rot)  - is the rotational thermal energy
    E(trans)- is the translational thermal energy

Summary of contributions to the inner energy U:
Electronic energy                ...  -1853.56937043 Eh
Zero point energy                ...      0.10696673 Eh      67.12 kcal/mol
Thermal vibrational correction   ...      0.01982456 Eh      12.44 kcal/mol
Thermal rotational correction    ...      0.00141627 Eh       0.89 kcal/mol
Thermal translational correction ...      0.00141627 Eh       0.89 kcal/mol
-----------------------------------------------------------------------
Total thermal energy                  -1853.43974660 Eh

Summary of corrections to the electronic energy:
(perhaps to be used in another calculation)
Total thermal correction                  0.02265710 Eh      14.22 kcal/mol
Non-thermal (ZPE) correction              0.10696673 Eh      67.12 kcal/mol
-----------------------------------------------------------------------
Total correction                          0.12962383 Eh      81.34 kcal/mol

--------
ENTHALPY
--------

The enthalpy is H = U + kB*T
                kB is Boltzmann's constant
Total thermal energy              ...  -1853.43974660 Eh
Thermal Enthalpy correction       ...      0.00094421 Eh       0.59 kcal/mol
-----------------------------------------------------------------------
Total Enthalpy                    ...  -1853.43880239 Eh

Note: Only C1 symmetry has been detected, increase convergence thresholds
      if your molecule has a higher symmetry. Symmetry factor of 1.0 is
      used for the rotational entropy correction.

Note: Rotational entropy computed according to Herzberg
Infrared and Raman Spectra, Chapter V,1, Van Nostrand Reinhold, 1945
Point Group:  C1, Symmetry Number:   1
Rotational constants in cm-1:     0.017563     0.004610     0.004385

Vibrational entropy computed according to the QRRHO of S. Grimme
Chem.Eur.J. 2012 18 9955 using a reference frequency of 100.0 cm-1

-------
ENTROPY
-------

The entropy contributions are T*S = T*(S(el)+S(vib)+S(rot)+S(trans))
     S(el)   - electronic entropy
     S(vib)  - vibrational entropy
     S(rot)  - rotational entropy
     S(trans)- translational entropy
The entropies will be listed as multiplied by the temperature to get
units of energy

Electronic entropy                ...      0.00065446 Eh      0.41 kcal/mol
Vibrational entropy               ...      0.03557273 Eh     22.32 kcal/mol

                             ****ORCA TERMINATED NORMALLY****
TOTAL RUN TIME: 0 days 0 hours 24 minutes 44 seconds 148 msec
