                         Program Version 6.0.1  -  RELEASE   -
|  1> !TPSSh def2-TZVP freq d3 TightSCF SlowConv defgrid2
|  2>
|  3> %pal
|  4> nprocs 20
|  5> end
|  6>
|  7> %scf
|  8> MaxIter 1500
|  9> end
| 10>
| 11> %maxcore 8000
| 12>
| 13> !CPCM
| 14> %cpcm smd true
| 15> SMDsolvent "ACETONITRILE"
| 16> end
| 17>
| 18> * xyz -2 2
| 19> 6        4.998807000      0.209001000     -0.291898000
| 20> 8        5.467221000     -0.272632000     -1.340122000
| 21> 8        5.375721000      1.170379000      0.407391000
| 22> 6        3.689726000     -0.486996000      0.243441000
| 23> 6        2.386567000      0.311254000     -0.056249000
| 24> 6        1.005348000     -0.412883000      0.039039000
| 25> 6       -0.358393000      0.357313000      0.031661000
| 26> 6       -1.823022000     -0.243556000     -0.009736000
| 27> 6       -3.209270000      0.489358000     -0.013729000
| 28> 6       -4.585261000     -0.212163000     -0.050291000
| 29> 9        3.536911000     -1.744599000     -0.291117000
| 30> 9        3.760308000     -0.668837000      1.605260000
| 31> 9        2.352936000      1.378652000      0.798445000
| 32> 9        2.493138000      0.808936000     -1.327616000
| 33> 9        0.957832000     -1.288074000     -1.022377000
| 34> 9        1.026362000     -1.147509000      1.203178000
| 35> 9       -0.338705000      1.147297000      1.171492000
| 36> 9       -0.293570000      1.181801000     -1.089739000
| 37> 9       -1.883213000     -1.073560000      1.112225000
| 38> 9       -1.848675000     -1.027053000     -1.160874000
| 39> 9       -3.209759000      1.315159000     -1.121504000
| 40> 9       -3.243127000      1.270069000      1.124810000
| 41> 9       -4.744794000     -1.009254000      1.021677000
| 42> 9       -5.654481000      0.646857000     -0.051208000
| 43> 9       -4.707200000     -0.965406000     -1.158615000
| 44> *
| 45>
| 46>                          ****END OF INPUT****

CARTESIAN COORDINATES (ANGSTROEM)
---------------------------------
  C      4.998807    0.209001   -0.291898
  O      5.467221   -0.272632   -1.340122
  O      5.375721    1.170379    0.407391
  C      3.689726   -0.486996    0.243441
  C      2.386567    0.311254   -0.056249
  C      1.005348   -0.412883    0.039039
  C     -0.358393    0.357313    0.031661
  C     -1.823022   -0.243556   -0.009736
  C     -3.209270    0.489358   -0.013729
  C     -4.585261   -0.212163   -0.050291
  F      3.536911   -1.744599   -0.291117
  F      3.760308   -0.668837    1.605260
  F      2.352936    1.378652    0.798445
  F      2.493138    0.808936   -1.327616
  F      0.957832   -1.288074   -1.022377
  F      1.026362   -1.147509    1.203178
  F     -0.338705    1.147297    1.171492
  F     -0.293570    1.181801   -1.089739
  F     -1.883213   -1.073560    1.112225
  F     -1.848675   -1.027053   -1.160874
  F     -3.209759    1.315159   -1.121504
  F     -3.243127    1.270069    1.124810
  F     -4.744794   -1.009254    1.021677
  F     -5.654481    0.646857   -0.051208
  F     -4.707200   -0.965406   -1.158615

 Total Charge           Charge          ....   -2
 Multiplicity           Mult            ....    2
 Number of Electrons    NEL             ....  201
 Basis Dimension        Dim             ....  775

ORBITAL ENERGIES
----------------
                 SPIN UP ORBITALS
  NO   OCC          E(Eh)            E(eV)
   0   1.0000     -24.634060      -670.3268
   1   1.0000     -24.633965      -670.3243
   2   1.0000     -24.624559      -670.0683
   3   1.0000     -24.614961      -669.8071
   4   1.0000     -24.614258      -669.7880
   5   1.0000     -24.613895      -669.7781
   6   1.0000     -24.612644      -669.7441
   7   1.0000     -24.611182      -669.7043
   8   1.0000     -24.609135      -669.6486
   9   1.0000     -24.600874      -669.4238
  10   1.0000     -24.600474      -669.4129
  11   1.0000     -24.599917      -669.3978
  12   1.0000     -24.599516      -669.3869
  13   1.0000     -24.599447      -669.3850
  14   1.0000     -24.598139      -669.3494
  15   1.0000     -18.977613      -516.4071
  16   1.0000     -18.976628      -516.3803
  17   1.0000     -10.358080      -281.8577
  18   1.0000     -10.288279      -279.9583
  19   1.0000     -10.286959      -279.9224
  20   1.0000     -10.283641      -279.8321
  21   1.0000     -10.272908      -279.5400
  22   1.0000     -10.272629      -279.5325
  23   1.0000     -10.262635      -279.2605
  24   1.0000     -10.178581      -276.9733
  25   1.0000      -1.285172       -34.9713
  26   1.0000      -1.243419       -33.8351
  27   1.0000      -1.231422       -33.5087
  28   1.0000      -1.224355       -33.3164
  29   1.0000      -1.214305       -33.0429
  30   1.0000      -1.212104       -32.9830
  31   1.0000      -1.204904       -32.7871
  32   1.0000      -1.202316       -32.7167
  33   1.0000      -1.191694       -32.4276
  34   1.0000      -1.182889       -32.1880
  35   1.0000      -1.178139       -32.0588
  36   1.0000      -1.172241       -31.8983
  37   1.0000      -1.164097       -31.6767
  38   1.0000      -1.158939       -31.5363
  39   1.0000      -1.157010       -31.4839
  40   1.0000      -0.985336       -26.8123
  41   1.0000      -0.903106       -24.5748
  42   1.0000      -0.765309       -20.8251
  43   1.0000      -0.759788       -20.6749
  44   1.0000      -0.730116       -19.8675
  45   1.0000      -0.698266       -19.0008
  46   1.0000      -0.659714       -17.9517
  47   1.0000      -0.627961       -17.0877
  48   1.0000      -0.605017       -16.4633
  49   1.0000      -0.574976       -15.6459
  50   1.0000      -0.572992       -15.5919
  51   1.0000      -0.571624       -15.5547
  52   1.0000      -0.560385       -15.2488
  53   1.0000      -0.554989       -15.1020
  54   1.0000      -0.552478       -15.0337
  55   1.0000      -0.539426       -14.6785
  56   1.0000      -0.536017       -14.5858
  57   1.0000      -0.528029       -14.3684
  58   1.0000      -0.526421       -14.3246
  59   1.0000      -0.519540       -14.1374
  60   1.0000      -0.512331       -13.9412
  61   1.0000      -0.507590       -13.8122
  62   1.0000      -0.502099       -13.6628
  63   1.0000      -0.494284       -13.4501
  64   1.0000      -0.445803       -12.1309
  65   1.0000      -0.445768       -12.1300
  66   1.0000      -0.439901       -11.9703
  67   1.0000      -0.431655       -11.7459
  68   1.0000      -0.428644       -11.6640
  69   1.0000      -0.426363       -11.6019
  70   1.0000      -0.421007       -11.4562
  71   1.0000      -0.419011       -11.4019
  72   1.0000      -0.416248       -11.3267
  73   1.0000      -0.415244       -11.2994
  74   1.0000      -0.413097       -11.2409
  75   1.0000      -0.409039       -11.1305
  76   1.0000      -0.406232       -11.0541
  77   1.0000      -0.400036       -10.8855
  78   1.0000      -0.399223       -10.8634
  79   1.0000      -0.394279       -10.7289
  80   1.0000      -0.388183       -10.5630
  81   1.0000      -0.387245       -10.5375
  82   1.0000      -0.386918       -10.5286
  83   1.0000      -0.380830       -10.3629
  84   1.0000      -0.378625       -10.3029
  85   1.0000      -0.376566       -10.2469
  86   1.0000      -0.373007       -10.1500
  87   1.0000      -0.370599       -10.0845
  88   1.0000      -0.367210        -9.9923
  89   1.0000      -0.366776        -9.9805
  90   1.0000      -0.364053        -9.9064
  91   1.0000      -0.361328        -9.8322
  92   1.0000      -0.353021        -9.6062
  93   1.0000      -0.352018        -9.5789
  94   1.0000      -0.342450        -9.3185
  95   1.0000      -0.320451        -8.7199
  96   1.0000      -0.290461        -7.9038
  97   1.0000      -0.222378        -6.0512
  98   1.0000      -0.208855        -5.6832
  99   1.0000      -0.204754        -5.5716
 100   1.0000      -0.070521        -1.9190
 101   0.0000       0.017744         0.4828
 102   0.0000       0.033178         0.9028
 103   0.0000       0.046122         1.2551
 104   0.0000       0.063375         1.7245
 105   0.0000       0.087894         2.3917

                 SPIN DOWN ORBITALS
  NO   OCC          E(Eh)            E(eV)
   0   1.0000     -24.634033      -670.3261
   1   1.0000     -24.633939      -670.3236
   2   1.0000     -24.623234      -670.0323
   3   1.0000     -24.614923      -669.8061
   4   1.0000     -24.613897      -669.7782
   5   1.0000     -24.613516      -669.7678
   6   1.0000     -24.612534      -669.7411
   7   1.0000     -24.610985      -669.6989
   8   1.0000     -24.608888      -669.6419
   9   1.0000     -24.600439      -669.4120
  10   1.0000     -24.599934      -669.3982
  11   1.0000     -24.599436      -669.3847
  12   1.0000     -24.599414      -669.3841
  13   1.0000     -24.598933      -669.3710
  14   1.0000     -24.598079      -669.3477
  15   1.0000     -18.977439      -516.4024
  16   1.0000     -18.976489      -516.3765
  17   1.0000     -10.356285      -281.8089
  18   1.0000     -10.285812      -279.8912
  19   1.0000     -10.285535      -279.8836
  20   1.0000     -10.281378      -279.7705
  21   1.0000     -10.269008      -279.4339
  22   1.0000     -10.268884      -279.4305
  23   1.0000     -10.262127      -279.2467
  24   1.0000     -10.178424      -276.9690
  25   1.0000      -1.284178       -34.9443
  26   1.0000      -1.242620       -33.8134
  27   1.0000      -1.229972       -33.4692
  28   1.0000      -1.223517       -33.2936
  29   1.0000      -1.213928       -33.0327
  30   1.0000      -1.210938       -32.9513
  31   1.0000      -1.204744       -32.7828
  32   1.0000      -1.200831       -32.6763
  33   1.0000      -1.189666       -32.3725
  34   1.0000      -1.182449       -32.1761
  35   1.0000      -1.177270       -32.0351
  36   1.0000      -1.171733       -31.8845
  37   1.0000      -1.163098       -31.6495
  38   1.0000      -1.158790       -31.5323
  39   1.0000      -1.155972       -31.4556
  40   1.0000      -0.985031       -26.8041
  41   1.0000      -0.902806       -24.5666
  42   1.0000      -0.758078       -20.6284
  43   1.0000      -0.752671       -20.4812
  44   1.0000      -0.722638       -19.6640
  45   1.0000      -0.692365       -18.8402
  46   1.0000      -0.656244       -17.8573
  47   1.0000      -0.625901       -17.0316
  48   1.0000      -0.603101       -16.4112
  49   1.0000      -0.573829       -15.6147
  50   1.0000      -0.569379       -15.4936
  51   1.0000      -0.567716       -15.4483
  52   1.0000      -0.558458       -15.1964
  53   1.0000      -0.551924       -15.0186
  54   1.0000      -0.550683       -14.9848
  55   1.0000      -0.537384       -14.6230
  56   1.0000      -0.532282       -14.4841
  57   1.0000      -0.526146       -14.3172
  58   1.0000      -0.523373       -14.2417
  59   1.0000      -0.518272       -14.1029
  60   1.0000      -0.511093       -13.9076
  61   1.0000      -0.503131       -13.6909
  62   1.0000      -0.499674       -13.5968
  63   1.0000      -0.493160       -13.4196
  64   1.0000      -0.445309       -12.1175
  65   1.0000      -0.443697       -12.0736
  66   1.0000      -0.439071       -11.9477
  67   1.0000      -0.431153       -11.7323
  68   1.0000      -0.427933       -11.6447
  69   1.0000      -0.426026       -11.5928
  70   1.0000      -0.420497       -11.4423
  71   1.0000      -0.418149       -11.3784
  72   1.0000      -0.415349       -11.3022
  73   1.0000      -0.414274       -11.2730
  74   1.0000      -0.412466       -11.2238
  75   1.0000      -0.408035       -11.1032
  76   1.0000      -0.405462       -11.0332
  77   1.0000      -0.398971       -10.8565
  78   1.0000      -0.398184       -10.8351
  79   1.0000      -0.393708       -10.7133
  80   1.0000      -0.387215       -10.5367
  81   1.0000      -0.386421       -10.5151
  82   1.0000      -0.386272       -10.5110
  83   1.0000      -0.379920       -10.3382
  84   1.0000      -0.377627       -10.2758
  85   1.0000      -0.376058       -10.2331
  86   1.0000      -0.371322       -10.1042
  87   1.0000      -0.367592       -10.0027
  88   1.0000      -0.365783        -9.9535
  89   1.0000      -0.364405        -9.9160
  90   1.0000      -0.363367        -9.8877
  91   1.0000      -0.358918        -9.7667
  92   1.0000      -0.351421        -9.5627
  93   1.0000      -0.347610        -9.4590
  94   1.0000      -0.337897        -9.1947
  95   1.0000      -0.317451        -8.6383
  96   1.0000      -0.289528        -7.8785
  97   1.0000      -0.221677        -6.0321
  98   1.0000      -0.208126        -5.6634
  99   1.0000      -0.204557        -5.5663
 100   0.0000      -0.013848        -0.3768
 101   0.0000       0.026278         0.7151
 102   0.0000       0.041893         1.1400
 103   0.0000       0.054400         1.4803
 104   0.0000       0.072439         1.9712

MULLIKEN ATOMIC CHARGES AND SPIN POPULATIONS
--------------------------------------------
   0 C :    0.166811    0.007601
   1 O :   -0.499530    0.005086
   2 O :   -0.507071    0.004354
   3 C :    0.307308    0.023267
   4 C :    0.247809    0.059251
   5 C :    0.254739    0.135505
   6 C :    0.221593    0.246843
   7 C :    0.195648    0.265832
   8 C :    0.251106    0.155324
   9 C :    0.376216    0.086168
  10 F :   -0.209766   -0.000061
  11 F :   -0.213920   -0.000041
  12 F :   -0.193433   -0.000211
  13 F :   -0.197494   -0.000807
  14 F :   -0.202424   -0.000930
  15 F :   -0.204209   -0.001489
  16 F :   -0.217355   -0.000544
  17 F :   -0.222799   -0.000209
  18 F :   -0.226465    0.000956
  19 F :   -0.222383    0.000635
  20 F :   -0.201755    0.000718
  21 F :   -0.201197    0.000616
  22 F :   -0.162151   -0.001464
  23 F :   -0.177000    0.015082
  24 F :   -0.162279   -0.001481
Sum of atomic charges         :   -2.0000000

LOEWDIN ATOMIC CHARGES AND SPIN POPULATIONS
-------------------------------------------
   0 C :   -0.694190    0.008588
   1 O :   -0.066135    0.005102
   2 O :   -0.068611    0.004285
   3 C :   -0.441034    0.025696
   4 C :   -0.459843    0.059028
   5 C :   -0.469981    0.127206
   6 C :   -0.475754    0.211032
   7 C :   -0.474348    0.230558
   8 C :   -0.482890    0.160873
   9 C :   -0.655385    0.072354
  10 F :    0.144748    0.001064
  11 F :    0.140980    0.000884
  12 F :    0.174243    0.001914
  13 F :    0.174185    0.001074
  14 F :    0.156386    0.004716
  15 F :    0.157734    0.003953
  16 F :    0.133680    0.008785
  17 F :    0.125448    0.009208
  18 F :    0.119475    0.011167
  19 F :    0.125623    0.010566
  20 F :    0.149832    0.007176
  21 F :    0.150990    0.006900
  22 F :    0.193836    0.001000
  23 F :    0.147431    0.025905
  24 F :    0.193581    0.000965

  Mayer bond orders larger than 0.100000
B(  0-C ,  1-O ) :   1.8598 B(  0-C ,  2-O ) :   1.8490 B(  0-C ,  3-C ) :   0.8535
B(  3-C ,  4-C ) :   0.9204 B(  3-C , 10-F ) :   1.0501 B(  3-C , 11-F ) :   1.0369
B(  4-C ,  5-C ) :   0.9026 B(  4-C , 12-F ) :   1.0644 B(  4-C , 13-F ) :   1.0513
B(  5-C ,  6-C ) :   0.9077 B(  5-C , 14-F ) :   1.0368 B(  5-C , 15-F ) :   1.0358
B(  6-C ,  7-C ) :   0.9052 B(  6-C , 16-F ) :   1.0081 B(  6-C , 17-F ) :   0.9974
B(  7-C ,  8-C ) :   0.9222 B(  7-C , 18-F ) :   0.9946 B(  7-C , 19-F ) :   0.9994
B(  8-C ,  9-C ) :   0.9675 B(  8-C , 20-F ) :   1.0311 B(  8-C , 21-F ) :   1.0311
B(  9-C , 22-F ) :   1.1474 B(  9-C , 23-F ) :   1.0912 B(  9-C , 24-F ) :   1.1468

Dispersion correction           -0.029394858
FINAL SINGLE POINT ENERGY     -1953.935908788364

DIPOLE MOMENT
-------------

Method             : SCF
Type of density    : Electron Density
Multiplicity       :   2
Irrep              :   0
Energy             : -1953.9065139298652412 Eh
Relativity type    :
Basis              : AO
                                X                 Y                 Z
Electronic contribution:    -17.565476244      -1.588757587       1.387221578
Nuclear contribution   :     10.238732442       0.839428062      -0.793276341
                        -----------------------------------------
Total Dipole Moment    :     -7.326743802      -0.749329525       0.593945237
                        -----------------------------------------
Magnitude (a.u.)       :      7.388872744
Magnitude (Debye)      :     18.781021963

VIBRATIONAL FREQUENCIES
-----------------------

Scaling factor for frequencies =  1.000000000  (already applied!)

     0:       0.00 cm**-1
     1:       0.00 cm**-1
     2:       0.00 cm**-1
     3:       0.00 cm**-1
     4:       0.00 cm**-1
     5:       0.00 cm**-1
     6:      23.44 cm**-1
     7:      33.91 cm**-1
     8:      35.06 cm**-1
     9:      39.07 cm**-1
    10:      46.00 cm**-1
    11:      56.93 cm**-1
    12:      62.72 cm**-1
    13:      71.96 cm**-1
    14:      94.14 cm**-1
    15:      98.75 cm**-1
    16:     128.50 cm**-1
    17:     157.89 cm**-1
    18:     178.06 cm**-1
    19:     195.82 cm**-1
    20:     204.47 cm**-1
    21:     222.46 cm**-1
    22:     225.60 cm**-1
    23:     238.79 cm**-1
    24:     245.56 cm**-1
    25:     253.25 cm**-1
    26:     259.58 cm**-1
    27:     308.30 cm**-1
    28:     315.73 cm**-1
    29:     316.75 cm**-1
    30:     323.04 cm**-1
    31:     331.12 cm**-1
    32:     340.90 cm**-1
    33:     354.62 cm**-1
    34:     358.83 cm**-1
    35:     367.27 cm**-1
    36:     411.66 cm**-1
    37:     456.56 cm**-1
    38:     461.07 cm**-1
    39:     499.12 cm**-1
    40:     504.91 cm**-1
    41:     522.87 cm**-1
    42:     538.25 cm**-1
    43:     555.90 cm**-1
    44:     566.05 cm**-1
    45:     581.80 cm**-1
    46:     596.92 cm**-1
    47:     609.45 cm**-1
    48:     625.17 cm**-1
    49:     658.73 cm**-1
    50:     669.33 cm**-1
    51:     705.90 cm**-1
    52:     723.76 cm**-1
    53:     782.18 cm**-1
    54:     810.42 cm**-1
    55:     845.74 cm**-1
    56:     864.78 cm**-1
    57:     943.29 cm**-1
    58:     959.03 cm**-1
    59:     969.97 cm**-1
    60:     976.30 cm**-1
    61:     995.68 cm**-1
    62:     998.14 cm**-1
    63:    1025.53 cm**-1
    64:    1030.17 cm**-1
    65:    1059.94 cm**-1
    66:    1063.33 cm**-1
    67:    1078.33 cm**-1
    68:    1094.32 cm**-1
    69:    1123.44 cm**-1
    70:    1124.48 cm**-1
    71:    1142.80 cm**-1
    72:    1250.78 cm**-1
    73:    1345.85 cm**-1
    74:    1701.26 cm**-1

IR SPECTRUM
-----------

 Mode   freq       eps      Int      T**2         TX        TY        TZ
       cm**-1   L/(mol*cm) km/mol    a.u.
----------------------------------------------------------------------------
  6:     23.44   0.000271    1.37  0.003608  (-0.059217 -0.000244 -0.010068)
  7:     33.91   0.000344    1.74  0.003164  (-0.033673 -0.031555  0.032157)
  8:     35.06   0.000619    3.13  0.005511  ( 0.020987  0.055250  0.044916)
  9:     39.07   0.000473    2.39  0.003778  (-0.047764  0.022896 -0.031182)
 10:     46.00   0.000173    0.87  0.001173  (-0.030021 -0.012328 -0.010920)
 11:     56.93   0.000426    2.15  0.002333  (-0.032295  0.007403  0.035146)
 12:     62.72   0.000056    0.28  0.000278  (-0.006534  0.013642 -0.006998)
 13:     71.96   0.000240    1.21  0.001042  (-0.031489  0.007119  0.000383)
 14:     94.14   0.001873    9.47  0.006209  (-0.072758  0.026380 -0.014821)
 15:     98.75   0.000598    3.02  0.001890  ( 0.040812  0.012552 -0.008177)
 16:    128.50   0.029384  148.50  0.071361  ( 0.264926 -0.032851  0.009811)
 17:    157.89   0.015797   79.83  0.031223  (-0.175923 -0.010817  0.012544)
 18:    178.06   0.000524    2.65  0.000918  (-0.026936  0.003885 -0.013321)
 19:    195.82   0.001036    5.24  0.001652  (-0.007231 -0.003753 -0.039817)
 20:    204.47   0.000108    0.55  0.000165  ( 0.010478  0.005652  0.004831)
 21:    222.46   0.002023   10.22  0.002838  ( 0.047934  0.003955  0.022909)
 22:    225.60   0.021392  108.11  0.029591  ( 0.171974  0.001765 -0.003562)
 23:    238.79   0.000004    0.02  0.000005  (-0.000375  0.002172  0.000512)
 24:    245.56   0.000062    0.31  0.000079  ( 0.006717 -0.001002 -0.005740)
 25:    253.25   0.000027    0.14  0.000033  ( 0.004019  0.000163  0.004104)
 26:    259.58   0.000269    1.36  0.000323  (-0.013828 -0.002849  0.011132)
 27:    308.30   0.001001    5.06  0.001013  ( 0.031650  0.003202 -0.001219)
 28:    315.73   0.008997   45.46  0.008892  (-0.094296 -0.000120  0.000554)
 29:    316.75   0.006075   30.70  0.005985  ( 0.077357 -0.000831  0.000823)
 30:    323.04   0.000021    0.11  0.000020  ( 0.000342 -0.004511 -0.000104)
 31:    331.12   0.005246   26.51  0.004944  ( 0.069676 -0.009177  0.002200)
 32:    340.90   0.003802   19.21  0.003480  ( 0.058941 -0.000135 -0.002441)
 33:    354.62   0.000064    0.32  0.000056  (-0.007053 -0.000050  0.002529)
 34:    358.83   0.000457    2.31  0.000398  ( 0.014685 -0.004656  0.012668)
 35:    367.27   0.000384    1.94  0.000327  (-0.016973  0.006053 -0.001353)
 36:    411.66   0.000016    0.08  0.000012  ( 0.003119  0.000532  0.001355)
 37:    456.56   0.000739    3.74  0.000505  (-0.016235 -0.013652 -0.007434)
 38:    461.07   0.000460    2.32  0.000311  (-0.009565 -0.007825  0.012585)
 39:    499.12   0.004238   21.42  0.002650  ( 0.050824 -0.006369  0.005109)
 40:    504.91   0.000150    0.76  0.000093  (-0.008225  0.001304  0.004858)
 41:    522.87   0.001866    9.43  0.001114  (-0.015203 -0.025784  0.014757)
 42:    538.25   0.001195    6.04  0.000693  (-0.024668 -0.009073 -0.001361)
 43:    555.90   0.007487   37.84  0.004203  (-0.062753  0.015540 -0.004848)
 44:    566.05   0.002193   11.08  0.001209  (-0.024668 -0.020176  0.013916)
 45:    581.80   0.000951    4.80  0.000510  ( 0.021566  0.002582  0.006170)
 46:    596.92   0.001105    5.58  0.000578  ( 0.019966  0.011005  0.007615)
 47:    609.45   0.033377  168.67  0.017091  ( 0.130513 -0.007048  0.002676)
 48:    625.17   0.074081  374.37  0.036979  (-0.192178 -0.006600  0.001656)
 49:    658.73   0.039766  200.96  0.018839  ( 0.136619 -0.012928  0.002587)
 50:    669.33   0.012816   64.77  0.005975  ( 0.076954  0.001293 -0.007175)
 51:    705.90   0.006158   31.12  0.002722  (-0.052162 -0.001117  0.000155)
 52:    723.76   0.023883  120.69  0.010297  (-0.097823  0.026936  0.001585)
 53:    782.18   0.032626  164.88  0.013017  (-0.097640 -0.046316  0.036577)
 54:    810.42   0.055568  280.82  0.021397  (-0.145281  0.017049  0.000165)
 55:    845.74   0.025452  128.62  0.009391  ( 0.095917 -0.013819  0.000530)
 56:    864.78   0.001699    8.59  0.000613  ( 0.019415 -0.002517  0.015162)
 57:    943.29   0.079366  401.08  0.026256  (-0.143376 -0.041685  0.062943)
 58:    959.03   0.014588   73.72  0.004747  (-0.062611 -0.023892  0.016000)
 59:    969.97   0.138029  697.54  0.044407  ( 0.208689  0.027985  0.008552)
 60:    976.30   0.172866  873.59  0.055255  (-0.183457  0.146234 -0.014623)
 61:    995.68   0.049260  248.94  0.015439  ( 0.067879 -0.006641  0.103862)
 62:    998.14   0.039093  197.56  0.012222  ( 0.054759 -0.019330 -0.094074)
 63:   1025.53   0.088101  445.22  0.026809  (-0.098735  0.079659  0.103511)
 64:   1030.17   0.173432  876.46  0.052537  ( 0.163111 -0.134683  0.088273)
 65:   1059.94   0.052517  265.40  0.015462  ( 0.063025 -0.074038 -0.077512)
 66:   1063.33   0.109394  552.83  0.032105  (-0.072101 -0.093021 -0.135104)
 67:   1078.33   0.095529  482.76  0.027646  ( 0.008166  0.059264 -0.155135)
 68:   1094.32   0.038288  193.49  0.010919  (-0.013494  0.102640  0.014194)
 69:   1123.44   0.118792  600.33  0.032998  (-0.096828 -0.010427 -0.153340)
 70:   1124.48   0.199857  1009.99  0.055464  ( 0.217257  0.030524 -0.085623)
 71:   1142.80   0.125925  636.37  0.034386  (-0.178309 -0.045046 -0.023725)
 72:   1250.78   0.112411  568.08  0.028046  ( 0.160812  0.043722 -0.016546)
 73:   1345.85   0.113691  574.55  0.026362  (-0.159173 -0.023332  0.021935)
 74:   1701.26   0.157469  795.78  0.028885  ( 0.007766 -0.108016 -0.130984)

--------------------------
THERMOCHEMISTRY AT 298.15K
--------------------------

Temperature         ...   298.15 K
Pressure            ...     1.00 atm
Total Mass          ...   413.06 AMU
Quasi RRHO          ...     True
Cut-Off Frequency   ...     1.00 cm^-1

Throughout the following assumptions are being made:
  (1) The electronic state is orbitally nondegenerate
      but the spin degeneracy is treated
  (2) There are no thermally accessible electronically excited states
  (3) Hindered rotations indicated by low frequency modes are not
      treated as such but are treated as vibrations and this may
      cause some error
  (4) All equations used are the standard statistical mechanics
      equations for an ideal gas
  (5) All vibrations are strictly harmonic

freq.      23.44  E(vib)   ...       0.56
freq.      33.91  E(vib)   ...       0.55
freq.      35.06  E(vib)   ...       0.54
freq.      39.07  E(vib)   ...       0.54
freq.      46.00  E(vib)   ...       0.53
freq.      56.93  E(vib)   ...       0.51
freq.      62.72  E(vib)   ...       0.51
freq.      71.96  E(vib)   ...       0.50
freq.      94.14  E(vib)   ...       0.47
freq.      98.75  E(vib)   ...       0.46
freq.     128.50  E(vib)   ...       0.43
freq.     157.89  E(vib)   ...       0.40
freq.     178.06  E(vib)   ...       0.37
freq.     195.82  E(vib)   ...       0.36
freq.     204.47  E(vib)   ...       0.35
freq.     222.46  E(vib)   ...       0.33
freq.     225.60  E(vib)   ...       0.33
freq.     238.79  E(vib)   ...       0.32
freq.     245.56  E(vib)   ...       0.31
freq.     253.25  E(vib)   ...       0.30
freq.     259.58  E(vib)   ...       0.30
freq.     308.30  E(vib)   ...       0.26
freq.     315.73  E(vib)   ...       0.25
freq.     316.75  E(vib)   ...       0.25
freq.     323.04  E(vib)   ...       0.25
freq.     331.12  E(vib)   ...       0.24
freq.     340.90  E(vib)   ...       0.23
freq.     354.62  E(vib)   ...       0.22
freq.     358.83  E(vib)   ...       0.22
freq.     367.27  E(vib)   ...       0.21
freq.     411.66  E(vib)   ...       0.19
freq.     456.56  E(vib)   ...       0.16
freq.     461.07  E(vib)   ...       0.16
freq.     499.12  E(vib)   ...       0.14
freq.     504.91  E(vib)   ...       0.14
freq.     522.87  E(vib)   ...       0.13
freq.     538.25  E(vib)   ...       0.12
freq.     555.90  E(vib)   ...       0.12
freq.     566.05  E(vib)   ...       0.11
freq.     581.80  E(vib)   ...       0.11
freq.     596.92  E(vib)   ...       0.10
freq.     609.45  E(vib)   ...       0.10
freq.     625.17  E(vib)   ...       0.09
freq.     658.73  E(vib)   ...       0.08
freq.     669.33  E(vib)   ...       0.08
freq.     705.90  E(vib)   ...       0.07
freq.     723.76  E(vib)   ...       0.06
freq.     782.18  E(vib)   ...       0.05
freq.     810.42  E(vib)   ...       0.05
freq.     845.74  E(vib)   ...       0.04
freq.     864.78  E(vib)   ...       0.04
freq.     943.29  E(vib)   ...       0.03
freq.     959.03  E(vib)   ...       0.03
freq.     969.97  E(vib)   ...       0.03
freq.     976.30  E(vib)   ...       0.03
freq.     995.68  E(vib)   ...       0.02
freq.     998.14  E(vib)   ...       0.02
freq.    1025.53  E(vib)   ...       0.02
freq.    1030.17  E(vib)   ...       0.02
freq.    1059.94  E(vib)   ...       0.02
freq.    1063.33  E(vib)   ...       0.02
freq.    1078.33  E(vib)   ...       0.02
freq.    1094.32  E(vib)   ...       0.02
freq.    1123.44  E(vib)   ...       0.01
freq.    1124.48  E(vib)   ...       0.01
freq.    1142.80  E(vib)   ...       0.01
freq.    1250.78  E(vib)   ...       0.01
freq.    1345.85  E(vib)   ...       0.01
freq.    1701.26  E(vib)   ...       0.00

------------
INNER ENERGY
------------

The inner energy is: U= E(el) + E(ZPE) + E(vib) + E(rot) + E(trans)
    E(el)   - is the total energy from the electronic structure calculation
              = E(kin-el) + E(nuc-el) + E(el-el) + E(nuc-nuc)
    E(ZPE)  - the the zero temperature vibrational energy from the frequency calculation
    E(vib)  - the the finite temperature correction to E(ZPE) due to population
              of excited vibrational states
    E(rot)  - is the rotational thermal energy
    E(trans)- is the translational thermal energy

Summary of contributions to the inner energy U:
Electronic energy                ...  -1953.93590879 Eh
Zero point energy                ...      0.08830574 Eh      55.41 kcal/mol
Thermal vibrational correction   ...      0.02159526 Eh      13.55 kcal/mol
Thermal rotational correction    ...      0.00141627 Eh       0.89 kcal/mol
Thermal translational correction ...      0.00141627 Eh       0.89 kcal/mol
-----------------------------------------------------------------------
Total thermal energy                  -1953.82317524 Eh

Summary of corrections to the electronic energy:
(perhaps to be used in another calculation)
Total thermal correction                  0.02442781 Eh      15.33 kcal/mol
Non-thermal (ZPE) correction              0.08830574 Eh      55.41 kcal/mol
-----------------------------------------------------------------------
Total correction                          0.11273355 Eh      70.74 kcal/mol

--------
ENTHALPY
--------

The enthalpy is H = U + kB*T
                kB is Boltzmann's constant
Total thermal energy              ...  -1953.82317524 Eh
Thermal Enthalpy correction       ...      0.00094421 Eh       0.59 kcal/mol
-----------------------------------------------------------------------
Total Enthalpy                    ...  -1953.82223103 Eh

Note: Only C1 symmetry has been detected, increase convergence thresholds
      if your molecule has a higher symmetry. Symmetry factor of 1.0 is
      used for the rotational entropy correction.

Note: Rotational entropy computed according to Herzberg
Infrared and Raman Spectra, Chapter V,1, Van Nostrand Reinhold, 1945
Point Group:  C1, Symmetry Number:   1
Rotational constants in cm-1:     0.021720     0.003356     0.003329

Vibrational entropy computed according to the QRRHO of S. Grimme
Chem.Eur.J. 2012 18 9955 using a reference frequency of 100.0 cm-1

-------
ENTROPY
-------

The entropy contributions are T*S = T*(S(el)+S(vib)+S(rot)+S(trans))
     S(el)   - electronic entropy
     S(vib)  - vibrational entropy
     S(rot)  - rotational entropy
     S(trans)- translational entropy
The entropies will be listed as multiplied by the temperature to get
units of energy

Electronic entropy                ...      0.00065446 Eh      0.41 kcal/mol
Vibrational entropy               ...      0.03875468 Eh     24.32 kcal/mol

                             ****ORCA TERMINATED NORMALLY****
TOTAL RUN TIME: 0 days 0 hours 25 minutes 34 seconds 833 msec
