                         Program Version 5.0.3 -  RELEASE  -
|  1> !TPSSh def2-TZVP opt d3 TightSCF SlowConv defgrid2
|  2>
|  3> %pal
|  4> nprocs 20
|  5> end
|  6>
|  7> %scf
|  8> MaxIter 1500
|  9> end
| 10>
| 11> %maxcore 8000
| 12>
| 13> !CPCM
| 14> %cpcm smd true
| 15> SMDsolvent "ACETONITRILE"
| 16> end
| 17>
| 18> * xyz -1 2
| 19> 6        4.790427000     -0.033865800     -0.529943200
| 20> 8        5.449345000     -1.206924000     -0.894594600
| 21> 8        4.978223000      1.323071000     -0.737377200
| 22> 6        3.506687600     -0.338741600      0.376153800
| 23> 6        2.222300000      0.400524800     -0.110681600
| 24> 6        0.900506800     -0.386389800      0.175703000
| 25> 6       -0.395261200      0.487294000      0.065549000
| 26> 6       -1.705693600     -0.364773800     -0.068373600
| 27> 6       -3.005136200      0.445344800      0.258164000
| 28> 6       -4.319880200     -0.214526000     -0.270540800
| 29> 9        3.211587400     -1.692050400      0.412735200
| 30> 9        3.741061800      0.055285800      1.689948800
| 31> 9        2.125696800      1.616867800      0.483236600
| 32> 9        2.314152400      0.589704000     -1.455769200
| 33> 9        0.794028800     -1.413561400     -0.700839000
| 34> 9        0.958350600     -0.884509000      1.435093400
| 35> 9       -0.498373400      1.260265600      1.173340200
| 36> 9       -0.299075000      1.289512600     -1.020910800
| 37> 9       -1.641790400     -1.418189000      0.779523800
| 38> 9       -1.792381400     -0.831391600     -1.336863600
| 39> 9       -3.119771000      0.573779800      1.598579800
| 40> 9       -4.383115600     -1.504377600      0.089127600
| 41> 9       -5.365669800      0.430528600      0.260394200
| 42> 9       -4.396020400     -0.128550600     -1.602941800
| 43> *
| 44>
| 45>                          ****END OF INPUT****
 Total Charge           Charge          ....   -1
 Multiplicity           Mult            ....    2
 Number of Electrons    NEL             ....  191
Dispersion correction           -0.028844450
FINAL SINGLE POINT ENERGY     -1853.893855341172
Dispersion correction            ... done
Dispersion correction           -0.028928694
FINAL SINGLE POINT ENERGY     -1853.936893794216
Dispersion correction            ... done
Dispersion correction           -0.028957896
FINAL SINGLE POINT ENERGY     -1853.944716902964
Dispersion correction            ... done
FINAL SINGLE POINT ENERGY     -1853.949076236638
FINAL SINGLE POINT ENERGY     -1853.950352085915
FINAL SINGLE POINT ENERGY     -1853.951265409125
FINAL SINGLE POINT ENERGY     -1853.952195588072
FINAL SINGLE POINT ENERGY     -1853.952666154028
FINAL SINGLE POINT ENERGY     -1853.952860748315
FINAL SINGLE POINT ENERGY     -1853.952955676113
FINAL SINGLE POINT ENERGY     -1853.952988787232
FINAL SINGLE POINT ENERGY     -1853.953059037347
FINAL SINGLE POINT ENERGY     -1853.953071442811
Dispersion correction            ... done
Dispersion correction           -0.029050594
FINAL SINGLE POINT ENERGY     -1853.953081898436
Dispersion correction            ... done
Dispersion correction           -0.029052381
FINAL SINGLE POINT ENERGY     -1853.953087791739
Dispersion correction            ... done
                    ***********************HURRAY********************

CARTESIAN COORDINATES (ANGSTROEM)
---------------------------------
  C      4.690093    0.312596   -0.661274
  O      5.303574   -0.541725   -1.319160
  O      4.820626    1.547284   -0.571506
  C      3.518533   -0.244747    0.244574
  C      2.118771    0.265888   -0.199858
  C      0.903578   -0.562043    0.335157
  C     -0.472005    0.178085    0.224862
  C     -1.730795   -0.748919    0.318031
  C     -3.009715    0.012638    0.507026
  C     -4.087395    0.187901   -0.522041
  F      3.468799   -1.613048    0.243578
  F      3.708374    0.130186    1.550800
  F      1.950574    1.550726    0.198229
  F      2.068994    0.234110   -1.558405
  F      0.822684   -1.721681   -0.357851
  F      1.109548   -0.857437    1.639753
  F     -0.560287    1.085440    1.225167
  F     -0.542534    0.835815   -0.955164
  F     -1.552326   -1.597504    1.366648
  F     -1.819075   -1.475281   -0.823686
  F     -3.326059    0.336551    1.748509
  F     -4.791688   -0.946082   -0.740133
  F     -4.955230    1.126444   -0.120081
  F     -3.566838    0.559131   -1.704461

 Multiplicity           Mult            ....    2
 Number of Electrons    NEL             ....  191
 Basis Dimension        Dim             ....  744

ORBITAL ENERGIES
----------------
                 SPIN UP ORBITALS
  NO   OCC          E(Eh)            E(eV)
   0   1.0000     -24.671483      -671.3452
   1   1.0000     -24.653651      -670.8600
   2   1.0000     -24.653085      -670.8446
   3   1.0000     -24.653040      -670.8433
   4   1.0000     -24.652986      -670.8419
   5   1.0000     -24.651953      -670.8137
   6   1.0000     -24.650774      -670.7817
   7   1.0000     -24.648476      -670.7191
   8   1.0000     -24.648109      -670.7092
   9   1.0000     -24.647517      -670.6930
  10   1.0000     -24.638126      -670.4375
  11   1.0000     -24.637955      -670.4328
  12   1.0000     -24.613743      -669.7740
  13   1.0000     -24.613297      -669.7619
  14   1.0000     -18.988161      -516.6941
  15   1.0000     -18.986365      -516.6453
  16   1.0000     -10.391754      -282.7740
  17   1.0000     -10.339864      -281.3620
  18   1.0000     -10.334354      -281.2121
  19   1.0000     -10.330944      -281.1193
  20   1.0000     -10.316112      -280.7157
  21   1.0000     -10.278798      -279.7003
  22   1.0000     -10.264916      -279.3226
  23   1.0000     -10.189345      -277.2662
  24   1.0000      -1.308465       -35.6052
  25   1.0000      -1.291855       -35.1532
  26   1.0000      -1.275561       -34.7098
  27   1.0000      -1.268471       -34.5169
  28   1.0000      -1.262952       -34.3667
  29   1.0000      -1.258651       -34.2496
  30   1.0000      -1.230953       -33.4959
  31   1.0000      -1.226179       -33.3660
  32   1.0000      -1.223304       -33.2878
  33   1.0000      -1.217524       -33.1305
  34   1.0000      -1.216357       -33.0987
  35   1.0000      -1.213052       -33.0088
  36   1.0000      -1.202946       -32.7338
  37   1.0000      -1.174990       -31.9731
  38   1.0000      -0.996575       -27.1182
  39   1.0000      -0.915343       -24.9078
  40   1.0000      -0.828716       -22.5505
  41   1.0000      -0.801750       -21.8167
  42   1.0000      -0.767365       -20.8811
  43   1.0000      -0.729684       -19.8557
  44   1.0000      -0.687249       -18.7010
  45   1.0000      -0.650936       -17.7129
  46   1.0000      -0.640643       -17.4328
  47   1.0000      -0.610676       -16.6173
  48   1.0000      -0.606329       -16.4991
  49   1.0000      -0.604748       -16.4560
  50   1.0000      -0.594224       -16.1696
  51   1.0000      -0.590896       -16.0791
  52   1.0000      -0.589295       -16.0355
  53   1.0000      -0.574516       -15.6334
  54   1.0000      -0.571699       -15.5567
  55   1.0000      -0.566178       -15.4065
  56   1.0000      -0.554935       -15.1005
  57   1.0000      -0.550461       -14.9788
  58   1.0000      -0.545877       -14.8541
  59   1.0000      -0.536981       -14.6120
  60   1.0000      -0.521116       -14.1803
  61   1.0000      -0.504819       -13.7368
  62   1.0000      -0.473769       -12.8919
  63   1.0000      -0.471592       -12.8327
  64   1.0000      -0.468539       -12.7496
  65   1.0000      -0.463971       -12.6253
  66   1.0000      -0.460261       -12.5243
  67   1.0000      -0.457510       -12.4495
  68   1.0000      -0.453823       -12.3492
  69   1.0000      -0.450365       -12.2551
  70   1.0000      -0.444325       -12.0907
  71   1.0000      -0.438763       -11.9393
  72   1.0000      -0.435999       -11.8641
  73   1.0000      -0.434064       -11.8115
  74   1.0000      -0.430768       -11.7218
  75   1.0000      -0.425461       -11.5774
  76   1.0000      -0.424604       -11.5541
  77   1.0000      -0.420602       -11.4452
  78   1.0000      -0.415965       -11.3190
  79   1.0000      -0.411646       -11.2014
  80   1.0000      -0.409589       -11.1455
  81   1.0000      -0.405154       -11.0248
  82   1.0000      -0.404533       -11.0079
  83   1.0000      -0.402196       -10.9443
  84   1.0000      -0.398082       -10.8323
  85   1.0000      -0.390490       -10.6258
  86   1.0000      -0.382238       -10.4012
  87   1.0000      -0.380014       -10.3407
  88   1.0000      -0.374022       -10.1777
  89   1.0000      -0.362621        -9.8674
  90   1.0000      -0.355025        -9.6607
  91   1.0000      -0.320556        -8.7228
  92   1.0000      -0.258399        -7.0314
  93   1.0000      -0.231877        -6.3097
  94   1.0000      -0.217336        -5.9140
  95   1.0000      -0.215304        -5.8587
  96   0.0000      -0.009292        -0.2528
  97   0.0000       0.000769         0.0209
  98   0.0000       0.014695         0.3999
  99   0.0000       0.041340         1.1249
 100   0.0000       0.064215         1.7474

                 SPIN DOWN ORBITALS
  NO   OCC          E(Eh)            E(eV)
   0   1.0000     -24.666942      -671.2216
   1   1.0000     -24.653637      -670.8596
   2   1.0000     -24.653055      -670.8437
   3   1.0000     -24.652818      -670.8373
   4   1.0000     -24.652734      -670.8350
   5   1.0000     -24.651438      -670.7997
   6   1.0000     -24.649988      -670.7603
   7   1.0000     -24.648481      -670.7193
   8   1.0000     -24.648102      -670.7089
   9   1.0000     -24.646129      -670.6553
  10   1.0000     -24.638130      -670.4376
  11   1.0000     -24.637953      -670.4328
  12   1.0000     -24.613739      -669.7739
  13   1.0000     -24.613298      -669.7619
  14   1.0000     -18.988142      -516.6936
  15   1.0000     -18.986361      -516.6452
  16   1.0000     -10.392459      -282.7932
  17   1.0000     -10.340761      -281.3864
  18   1.0000     -10.333758      -281.1959
  19   1.0000     -10.330846      -281.1166
  20   1.0000     -10.316070      -280.7145
  21   1.0000     -10.278779      -279.6998
  22   1.0000     -10.249104      -278.8923
  23   1.0000     -10.189342      -277.2661
  24   1.0000      -1.307012       -35.5656
  25   1.0000      -1.291372       -35.1400
  26   1.0000      -1.274284       -34.6750
  27   1.0000      -1.267679       -34.4953
  28   1.0000      -1.258781       -34.2532
  29   1.0000      -1.255696       -34.1692
  30   1.0000      -1.230943       -33.4957
  31   1.0000      -1.225737       -33.3540
  32   1.0000      -1.222534       -33.2668
  33   1.0000      -1.215633       -33.0791
  34   1.0000      -1.215225       -33.0680
  35   1.0000      -1.212736       -33.0002
  36   1.0000      -1.202944       -32.7338
  37   1.0000      -1.174987       -31.9730
  38   1.0000      -0.996555       -27.1177
  39   1.0000      -0.915320       -24.9071
  40   1.0000      -0.817843       -22.2546
  41   1.0000      -0.795134       -21.6367
  42   1.0000      -0.763118       -20.7655
  43   1.0000      -0.728682       -19.8284
  44   1.0000      -0.684411       -18.6238
  45   1.0000      -0.646211       -17.5843
  46   1.0000      -0.640123       -17.4186
  47   1.0000      -0.609124       -16.5751
  48   1.0000      -0.602357       -16.3910
  49   1.0000      -0.602211       -16.3870
  50   1.0000      -0.593549       -16.1513
  51   1.0000      -0.588460       -16.0128
  52   1.0000      -0.586911       -15.9706
  53   1.0000      -0.573618       -15.6089
  54   1.0000      -0.570979       -15.5371
  55   1.0000      -0.564753       -15.3677
  56   1.0000      -0.554323       -15.0839
  57   1.0000      -0.549089       -14.9415
  58   1.0000      -0.545498       -14.8438
  59   1.0000      -0.536616       -14.6021
  60   1.0000      -0.521109       -14.1801
  61   1.0000      -0.476025       -12.9533
  62   1.0000      -0.472199       -12.8492
  63   1.0000      -0.470637       -12.8067
  64   1.0000      -0.466845       -12.7035
  65   1.0000      -0.462296       -12.5797
  66   1.0000      -0.459643       -12.5075
  67   1.0000      -0.455681       -12.3997
  68   1.0000      -0.451827       -12.2948
  69   1.0000      -0.449314       -12.2265
  70   1.0000      -0.443214       -12.0605
  71   1.0000      -0.438431       -11.9303
  72   1.0000      -0.435261       -11.8440
  73   1.0000      -0.431655       -11.7459
  74   1.0000      -0.429440       -11.6856
  75   1.0000      -0.425165       -11.5693
  76   1.0000      -0.422324       -11.4920
  77   1.0000      -0.419785       -11.4229
  78   1.0000      -0.415421       -11.3042
  79   1.0000      -0.411183       -11.1889
  80   1.0000      -0.408908       -11.1270
  81   1.0000      -0.404641       -11.0108
  82   1.0000      -0.403670       -10.9844
  83   1.0000      -0.402119       -10.9422
  84   1.0000      -0.396871       -10.7994
  85   1.0000      -0.389445       -10.5973
  86   1.0000      -0.382227       -10.4009
  87   1.0000      -0.378925       -10.3111
  88   1.0000      -0.373967       -10.1761
  89   1.0000      -0.362598        -9.8668
  90   1.0000      -0.353469        -9.6184
  91   1.0000      -0.319340        -8.6897
  92   1.0000      -0.231867        -6.3094
  93   1.0000      -0.217385        -5.9154
  94   1.0000      -0.215299        -5.8586
  95   0.0000      -0.132076        -3.5940
  96   0.0000      -0.005721        -0.1557
  97   0.0000       0.005260         0.1431
  98   0.0000       0.019395         0.5278
  99   0.0000       0.045218         1.2304

MULLIKEN ATOMIC CHARGES AND SPIN POPULATIONS
--------------------------------------------
   0 C :    0.167402    0.000183
   1 O :   -0.478581    0.000662
   2 O :   -0.492361    0.000128
   3 C :    0.299911    0.000598
   4 C :    0.282320    0.002017
   5 C :    0.289397    0.005015
   6 C :    0.271809    0.028447
   7 C :    0.342268   -0.015905
   8 C :    0.142019    0.853800
   9 C :    0.414621   -0.018566
  10 F :   -0.195157   -0.000009
  11 F :   -0.202027    0.000086
  12 F :   -0.166145   -0.000022
  13 F :   -0.173899    0.000063
  14 F :   -0.158247   -0.000167
  15 F :   -0.157943    0.000134
  16 F :   -0.156883   -0.000240
  17 F :   -0.157281   -0.000545
  18 F :   -0.156926    0.014711
  19 F :   -0.154887    0.004704
  20 F :   -0.123391    0.086738
  21 F :   -0.150327    0.026659
  22 F :   -0.141056    0.002739
  23 F :   -0.144639    0.008772
Sum of atomic charges         :   -1.0000000

LOEWDIN ATOMIC CHARGES AND SPIN POPULATIONS
-------------------------------------------
   0 C :   -0.691534    0.000226
   1 O :   -0.047723    0.000594
   2 O :   -0.054123    0.000116
   3 C :   -0.438714    0.000686
   4 C :   -0.455920    0.001543
   5 C :   -0.457657    0.004502
   6 C :   -0.454313    0.021425
   7 C :   -0.480521    0.061665
   8 C :   -0.167988    0.669183
   9 C :   -0.671821    0.059304
  10 F :    0.163561   -0.000014
  11 F :    0.154444    0.000093
  12 F :    0.208817   -0.000058
  13 F :    0.202972    0.000081
  14 F :    0.215703   -0.000095
  15 F :    0.216072    0.000236
  16 F :    0.219657    0.001071
  17 F :    0.220868    0.000696
  18 F :    0.209515    0.015750
  19 F :    0.217444    0.006162
  20 F :    0.264642    0.110931
  21 F :    0.195433    0.030181
  22 F :    0.219300    0.004082
  23 F :    0.211888    0.011641

  Mayer bond orders larger than 0.100000
B(  0-C ,  1-O ) :   1.8737 B(  0-C ,  2-O ) :   1.8465 B(  0-C ,  3-C ) :   0.8535
B(  3-C ,  4-C ) :   0.9374 B(  3-C , 10-F ) :   1.0532 B(  3-C , 11-F ) :   1.0403
B(  4-C ,  5-C ) :   0.9381 B(  4-C , 12-F ) :   1.0772 B(  4-C , 13-F ) :   1.0661
B(  5-C ,  6-C ) :   0.9456 B(  5-C , 14-F ) :   1.0826 B(  5-C , 15-F ) :   1.0920
B(  6-C ,  7-C ) :   0.9476 B(  6-C , 16-F ) :   1.0869 B(  6-C , 17-F ) :   1.0941
B(  7-C ,  8-C ) :   1.0056 B(  7-C , 18-F ) :   1.0833 B(  7-C , 19-F ) :   1.0986
B(  8-C ,  9-C ) :   1.0540 B(  8-C , 20-F ) :   1.1474 B(  9-C , 21-F ) :   1.1446
B(  9-C , 22-F ) :   1.1567 B(  9-C , 23-F ) :   1.1492

Dispersion correction           -0.029052657
FINAL SINGLE POINT ENERGY     -1853.953088601628

DIPOLE MOMENT
-------------
                                X             Y             Z
Electronic contribution:    -17.08385      -1.73969       2.93450
Nuclear contribution   :      8.64743       1.01899      -1.44249
                        -----------------------------------------
Total Dipole Moment    :     -8.43642      -0.72070       1.49201
                        -----------------------------------------
Magnitude (a.u.)       :      8.59759
Magnitude (Debye)      :     21.85335

Rotational constants in cm-1:     0.020824     0.004047     0.003976
Rotational constants in MHz :   624.293594   121.314760   119.185405

                             ****ORCA TERMINATED NORMALLY****
TOTAL RUN TIME: 0 days 0 hours 36 minutes 53 seconds 477 msec
