                         Program Version 6.0.1  -  RELEASE   -
|  1> !B3LYP def2-TZVP freq d3 TightSCF SlowConv defgrid2
|  2>
|  3> %pal
|  4> nprocs 20
|  5> end
|  6>
|  7> %scf
|  8> MaxIter 1500
|  9> end
| 10>
| 11> %maxcore 8000
| 12>
| 13> !CPCM
| 14> %cpcm smd true
| 15> SMDsolvent "ACETONITRILE"
| 16> end
| 17>
| 18> * xyz -1 2
| 19> 6        4.354738000     -0.212322000     -1.062916000
| 20> 8        4.614035000     -1.152292000     -1.824891000
| 21> 8        4.801640000      0.943723000     -0.990323000
| 22> 6        3.254015000     -0.518510000      0.033163000
| 23> 6        1.968092000      0.337060000     -0.148391000
| 24> 6        0.705661000     -0.209564000      0.597381000
| 25> 6       -0.452126000      0.837461000      0.777233000
| 26> 6       -1.758609000      0.191839000      1.118936000
| 27> 6       -3.091097000      0.400126000      0.459114000
| 28> 6       -3.318374000     -0.388115000     -0.869702000
| 29> 9        2.871558000     -1.828907000      0.022570000
| 30> 9        3.751399000     -0.273270000      1.285100000
| 31> 9        2.195564000      1.599444000      0.278185000
| 32> 9        1.671003000      0.384186000     -1.472084000
| 33> 9        0.205084000     -1.257133000     -0.096312000
| 34> 9        1.062689000     -0.645370000      1.825361000
| 35> 9       -0.083071000      1.699545000      1.767603000
| 36> 9       -0.588067000      1.552566000     -0.362706000
| 37> 9       -1.716587000     -0.736541000      2.058330000
| 38> 9       -3.278340000      1.713113000      0.176755000
| 39> 9       -4.057789000     -0.003982000      1.317207000
| 40> 9       -3.115797000     -1.693109000     -0.664487000
| 41> 9       -4.571345000     -0.211970000     -1.297375000
| 42> 9       -2.480491000      0.036970000     -1.817343000
| 43> *
| 44>
| 45>                          ****END OF INPUT****

CARTESIAN COORDINATES (ANGSTROEM)
---------------------------------
  C      4.354738   -0.212322   -1.062916
  O      4.614035   -1.152292   -1.824891
  O      4.801640    0.943723   -0.990323
  C      3.254015   -0.518510    0.033163
  C      1.968092    0.337060   -0.148391
  C      0.705661   -0.209564    0.597381
  C     -0.452126    0.837461    0.777233
  C     -1.758609    0.191839    1.118936
  C     -3.091097    0.400126    0.459114
  C     -3.318374   -0.388115   -0.869702
  F      2.871558   -1.828907    0.022570
  F      3.751399   -0.273270    1.285100
  F      2.195564    1.599444    0.278185
  F      1.671003    0.384186   -1.472084
  F      0.205084   -1.257133   -0.096312
  F      1.062689   -0.645370    1.825361
  F     -0.083071    1.699545    1.767603
  F     -0.588067    1.552566   -0.362706
  F     -1.716587   -0.736541    2.058330
  F     -3.278340    1.713113    0.176755
  F     -4.057789   -0.003982    1.317207
  F     -3.115797   -1.693109   -0.664487
  F     -4.571345   -0.211970   -1.297375
  F     -2.480491    0.036970   -1.817343

 Total Charge           Charge          ....   -1
 Multiplicity           Mult            ....    2
 Number of Electrons    NEL             ....  191
 Basis Dimension        Dim             ....  744

ORBITAL ENERGIES
----------------
                 SPIN UP ORBITALS
  NO   OCC          E(Eh)            E(eV)
   0   1.0000     -24.755269      -673.6251
   1   1.0000     -24.740919      -673.2346
   2   1.0000     -24.740762      -673.2304
   3   1.0000     -24.739878      -673.2063
   4   1.0000     -24.735539      -673.0882
   5   1.0000     -24.734839      -673.0692
   6   1.0000     -24.734214      -673.0522
   7   1.0000     -24.732157      -672.9962
   8   1.0000     -24.731756      -672.9853
   9   1.0000     -24.726501      -672.8423
  10   1.0000     -24.721849      -672.7157
  11   1.0000     -24.721606      -672.7091
  12   1.0000     -24.697806      -672.0615
  13   1.0000     -24.697470      -672.0523
  14   1.0000     -19.061424      -518.6877
  15   1.0000     -19.059517      -518.6358
  16   1.0000     -10.454540      -284.4825
  17   1.0000     -10.403176      -283.0848
  18   1.0000     -10.399640      -282.9886
  19   1.0000     -10.392520      -282.7949
  20   1.0000     -10.380120      -282.4574
  21   1.0000     -10.342594      -281.4363
  22   1.0000     -10.325627      -280.9746
  23   1.0000     -10.254072      -279.0275
  24   1.0000      -1.348215       -36.6868
  25   1.0000      -1.317096       -35.8400
  26   1.0000      -1.306197       -35.5434
  27   1.0000      -1.296231       -35.2722
  28   1.0000      -1.292279       -35.1647
  29   1.0000      -1.288642       -35.0657
  30   1.0000      -1.262043       -34.3419
  31   1.0000      -1.259623       -34.2761
  32   1.0000      -1.256553       -34.1925
  33   1.0000      -1.249175       -33.9918
  34   1.0000      -1.244042       -33.8521
  35   1.0000      -1.238057       -33.6893
  36   1.0000      -1.231885       -33.5213
  37   1.0000      -1.204339       -32.7717
  38   1.0000      -1.024442       -27.8765
  39   1.0000      -0.942015       -25.6335
  40   1.0000      -0.855374       -23.2759
  41   1.0000      -0.821133       -22.3442
  42   1.0000      -0.791262       -21.5313
  43   1.0000      -0.752537       -20.4776
  44   1.0000      -0.716212       -19.4891
  45   1.0000      -0.679169       -18.4811
  46   1.0000      -0.666297       -18.1309
  47   1.0000      -0.642828       -17.4922
  48   1.0000      -0.633947       -17.2506
  49   1.0000      -0.633233       -17.2312
  50   1.0000      -0.625814       -17.0293
  51   1.0000      -0.619422       -16.8553
  52   1.0000      -0.615733       -16.7549
  53   1.0000      -0.602358       -16.3910
  54   1.0000      -0.601291       -16.3620
  55   1.0000      -0.591047       -16.0832
  56   1.0000      -0.581889       -15.8340
  57   1.0000      -0.578043       -15.7294
  58   1.0000      -0.571776       -15.5588
  59   1.0000      -0.564377       -15.3575
  60   1.0000      -0.549484       -14.9522
  61   1.0000      -0.534921       -14.5559
  62   1.0000      -0.504404       -13.7255
  63   1.0000      -0.501427       -13.6445
  64   1.0000      -0.498776       -13.5724
  65   1.0000      -0.497746       -13.5444
  66   1.0000      -0.495570       -13.4851
  67   1.0000      -0.485902       -13.2221
  68   1.0000      -0.479476       -13.0472
  69   1.0000      -0.478361       -13.0169
  70   1.0000      -0.475451       -12.9377
  71   1.0000      -0.471107       -12.8195
  72   1.0000      -0.465802       -12.6751
  73   1.0000      -0.462113       -12.5747
  74   1.0000      -0.460150       -12.5213
  75   1.0000      -0.457575       -12.4513
  76   1.0000      -0.453590       -12.3428
  77   1.0000      -0.450825       -12.2676
  78   1.0000      -0.444948       -12.1077
  79   1.0000      -0.440379       -11.9833
  80   1.0000      -0.438506       -11.9324
  81   1.0000      -0.436842       -11.8871
  82   1.0000      -0.433954       -11.8085
  83   1.0000      -0.431716       -11.7476
  84   1.0000      -0.425282       -11.5725
  85   1.0000      -0.413649       -11.2560
  86   1.0000      -0.411572       -11.1994
  87   1.0000      -0.399545       -10.8722
  88   1.0000      -0.398475       -10.8431
  89   1.0000      -0.384753       -10.4696
  90   1.0000      -0.382560       -10.4100
  91   1.0000      -0.347029        -9.4431
  92   1.0000      -0.270937        -7.3726
  93   1.0000      -0.250430        -6.8146
  94   1.0000      -0.238503        -6.4900
  95   1.0000      -0.236727        -6.4417
  96   0.0000      -0.003837        -0.1044
  97   0.0000       0.024019         0.6536
  98   0.0000       0.038125         1.0374
  99   0.0000       0.055188         1.5017
 100   0.0000       0.075549         2.0558

                 SPIN DOWN ORBITALS
  NO   OCC          E(Eh)            E(eV)
   0   1.0000     -24.750751      -673.5022
   1   1.0000     -24.740867      -673.2332
   2   1.0000     -24.740723      -673.2293
   3   1.0000     -24.739541      -673.1971
   4   1.0000     -24.735387      -673.0841
   5   1.0000     -24.734507      -673.0601
   6   1.0000     -24.733521      -673.0333
   7   1.0000     -24.732079      -672.9941
   8   1.0000     -24.731655      -672.9825
   9   1.0000     -24.725156      -672.8057
  10   1.0000     -24.721843      -672.7155
  11   1.0000     -24.721606      -672.7091
  12   1.0000     -24.697800      -672.0613
  13   1.0000     -24.697471      -672.0523
  14   1.0000     -19.061406      -518.6872
  15   1.0000     -19.059515      -518.6358
  16   1.0000     -10.453750      -284.4610
  17   1.0000     -10.404070      -283.1092
  18   1.0000     -10.400445      -283.0105
  19   1.0000     -10.392104      -282.7835
  20   1.0000     -10.380077      -282.4563
  21   1.0000     -10.342571      -281.4357
  22   1.0000     -10.311150      -280.5807
  23   1.0000     -10.254068      -279.0274
  24   1.0000      -1.347724       -36.6734
  25   1.0000      -1.315773       -35.8040
  26   1.0000      -1.303751       -35.4769
  27   1.0000      -1.295279       -35.2463
  28   1.0000      -1.289856       -35.0988
  29   1.0000      -1.283261       -34.9193
  30   1.0000      -1.262024       -34.3414
  31   1.0000      -1.259324       -34.2680
  32   1.0000      -1.256011       -34.1778
  33   1.0000      -1.248532       -33.9743
  34   1.0000      -1.242864       -33.8201
  35   1.0000      -1.236462       -33.6458
  36   1.0000      -1.231842       -33.5201
  37   1.0000      -1.204332       -32.7715
  38   1.0000      -1.024421       -27.8759
  39   1.0000      -0.941991       -25.6329
  40   1.0000      -0.841436       -22.8966
  41   1.0000      -0.818903       -22.2835
  42   1.0000      -0.788280       -21.4502
  43   1.0000      -0.745566       -20.2879
  44   1.0000      -0.714497       -19.4424
  45   1.0000      -0.675142       -18.3715
  46   1.0000      -0.664758       -18.0890
  47   1.0000      -0.639333       -17.3971
  48   1.0000      -0.632527       -17.2119
  49   1.0000      -0.631110       -17.1734
  50   1.0000      -0.624587       -16.9959
  51   1.0000      -0.617850       -16.8126
  52   1.0000      -0.614425       -16.7194
  53   1.0000      -0.601011       -16.3543
  54   1.0000      -0.599010       -16.2999
  55   1.0000      -0.589195       -16.0328
  56   1.0000      -0.580917       -15.8075
  57   1.0000      -0.576033       -15.6747
  58   1.0000      -0.570809       -15.5325
  59   1.0000      -0.563412       -15.3312
  60   1.0000      -0.549454       -14.9514
  61   1.0000      -0.508982       -13.8501
  62   1.0000      -0.502367       -13.6701
  63   1.0000      -0.499612       -13.5951
  64   1.0000      -0.498537       -13.5659
  65   1.0000      -0.496459       -13.5093
  66   1.0000      -0.492765       -13.4088
  67   1.0000      -0.485121       -13.2008
  68   1.0000      -0.477995       -13.0069
  69   1.0000      -0.477227       -12.9860
  70   1.0000      -0.474017       -12.8987
  71   1.0000      -0.469498       -12.7757
  72   1.0000      -0.463918       -12.6239
  73   1.0000      -0.460923       -12.5423
  74   1.0000      -0.457976       -12.4622
  75   1.0000      -0.457172       -12.4403
  76   1.0000      -0.452880       -12.3235
  77   1.0000      -0.449975       -12.2444
  78   1.0000      -0.444285       -12.0896
  79   1.0000      -0.439449       -11.9580
  80   1.0000      -0.437993       -11.9184
  81   1.0000      -0.435914       -11.8618
  82   1.0000      -0.432916       -11.7803
  83   1.0000      -0.431421       -11.7395
  84   1.0000      -0.424238       -11.5441
  85   1.0000      -0.412922       -11.2362
  86   1.0000      -0.411559       -11.1991
  87   1.0000      -0.399326       -10.8662
  88   1.0000      -0.395785       -10.7699
  89   1.0000      -0.384719       -10.4687
  90   1.0000      -0.379665       -10.3312
  91   1.0000      -0.345454        -9.4003
  92   1.0000      -0.250420        -6.8143
  93   1.0000      -0.238647        -6.4939
  94   1.0000      -0.236737        -6.4419
  95   0.0000      -0.126613        -3.4453
  96   0.0000      -0.001109        -0.0302
  97   0.0000       0.025610         0.6969
  98   0.0000       0.041265         1.1229
  99   0.0000       0.058043         1.5794

MULLIKEN ATOMIC CHARGES AND SPIN POPULATIONS
--------------------------------------------
   0 C :    0.143413    0.000110
   1 O :   -0.472028    0.000616
   2 O :   -0.486947    0.000101
   3 C :    0.339806    0.000922
   4 C :    0.322653    0.002393
   5 C :    0.336721    0.007193
   6 C :    0.369258    0.002136
   7 C :    0.107546    0.839082
   8 C :    0.356850   -0.025328
   9 C :    0.476036    0.028434
  10 F :   -0.211547   -0.000009
  11 F :   -0.219176    0.000137
  12 F :   -0.184049   -0.000055
  13 F :   -0.193017    0.000163
  14 F :   -0.182735    0.001115
  15 F :   -0.177860    0.002020
  16 F :   -0.180310    0.024806
  17 F :   -0.180521    0.002835
  18 F :   -0.143646    0.087158
  19 F :   -0.170338    0.011956
  20 F :   -0.169822    0.006341
  21 F :   -0.162765    0.000587
  22 F :   -0.157143    0.006244
  23 F :   -0.160378    0.001043
Sum of atomic charges         :   -1.0000000

LOEWDIN ATOMIC CHARGES AND SPIN POPULATIONS
-------------------------------------------
   0 C :   -0.693276    0.000242
   1 O :   -0.050153    0.000569
   2 O :   -0.057374    0.000086
   3 C :   -0.436565    0.000929
   4 C :   -0.453284    0.002330
   5 C :   -0.446698    0.012692
   6 C :   -0.473343    0.061765
   7 C :   -0.161431    0.656151
   8 C :   -0.480772    0.064487
   9 C :   -0.660060    0.022205
  10 F :    0.164625    0.000002
  11 F :    0.153964    0.000165
  12 F :    0.208270    0.000020
  13 F :    0.200452    0.000218
  14 F :    0.212800    0.001915
  15 F :    0.213695    0.002544
  16 F :    0.192605    0.027677
  17 F :    0.217472    0.003821
  18 F :    0.264929    0.111866
  19 F :    0.207821    0.013734
  20 F :    0.212190    0.006448
  21 F :    0.220729    0.001195
  22 F :    0.220044    0.007518
  23 F :    0.223360    0.001420

  Mayer bond orders larger than 0.100000
B(  0-C ,  1-O ) :   1.8974 B(  0-C ,  2-O ) :   1.8724 B(  0-C ,  3-C ) :   0.8475
B(  3-C ,  4-C ) :   0.9176 B(  3-C , 10-F ) :   1.0434 B(  3-C , 11-F ) :   1.0268
B(  4-C ,  5-C ) :   0.9158 B(  4-C , 12-F ) :   1.0677 B(  4-C , 13-F ) :   1.0559
B(  5-C ,  6-C ) :   0.9256 B(  5-C , 14-F ) :   1.0581 B(  5-C , 15-F ) :   1.0707
B(  6-C ,  7-C ) :   1.0458 B(  6-C , 16-F ) :   1.0712 B(  6-C , 17-F ) :   1.0639
B(  7-C ,  8-C ) :   1.0139 B(  7-C , 18-F ) :   1.1233 B(  8-C ,  9-C ) :   0.9525
B(  8-C , 19-F ) :   1.0976 B(  8-C , 20-F ) :   1.0883 B(  9-C , 21-F ) :   1.1311
B(  9-C , 22-F ) :   1.1411 B(  9-C , 23-F ) :   1.1371

Dispersion correction           -0.042472361
FINAL SINGLE POINT ENERGY     -1853.285318885682

DIPOLE MOMENT
-------------

Method             : SCF
Type of density    : Electron Density
Multiplicity       :   2
Irrep              :   0
Energy             : -1853.2428465244809104 Eh
Relativity type    :
Basis              : AO
                                X                 Y                 Z
Electronic contribution:    -16.126598728       0.240959664       4.338158571
Nuclear contribution   :      8.203762803      -0.041439401      -2.078024923
                        -----------------------------------------
Total Dipole Moment    :     -7.922835925       0.199520264       2.260133648
                        -----------------------------------------
Magnitude (a.u.)       :      8.241319162
Magnitude (Debye)      :     20.947768564

VIBRATIONAL FREQUENCIES
-----------------------

Scaling factor for frequencies =  1.000000000  (already applied!)

     0:       0.00 cm**-1
     1:       0.00 cm**-1
     2:       0.00 cm**-1
     3:       0.00 cm**-1
     4:       0.00 cm**-1
     5:       0.00 cm**-1
     6:      22.88 cm**-1
     7:      27.16 cm**-1
     8:      37.50 cm**-1
     9:      46.67 cm**-1
    10:      50.24 cm**-1
    11:      60.09 cm**-1
    12:      64.08 cm**-1
    13:      74.79 cm**-1
    14:     102.81 cm**-1
    15:     132.68 cm**-1
    16:     148.41 cm**-1
    17:     186.14 cm**-1
    18:     187.80 cm**-1
    19:     205.50 cm**-1
    20:     213.68 cm**-1
    21:     221.77 cm**-1
    22:     245.74 cm**-1
    23:     249.30 cm**-1
    24:     261.69 cm**-1
    25:     280.56 cm**-1
    26:     297.07 cm**-1
    27:     309.52 cm**-1
    28:     335.90 cm**-1
    29:     342.58 cm**-1
    30:     354.42 cm**-1
    31:     359.33 cm**-1
    32:     368.61 cm**-1
    33:     371.59 cm**-1
    34:     409.82 cm**-1
    35:     424.03 cm**-1
    36:     456.34 cm**-1
    37:     494.48 cm**-1
    38:     528.64 cm**-1
    39:     531.87 cm**-1
    40:     553.96 cm**-1
    41:     572.06 cm**-1
    42:     591.93 cm**-1
    43:     599.14 cm**-1
    44:     627.94 cm**-1
    45:     653.53 cm**-1
    46:     658.97 cm**-1
    47:     708.73 cm**-1
    48:     729.06 cm**-1
    49:     774.06 cm**-1
    50:     793.09 cm**-1
    51:     881.02 cm**-1
    52:     977.57 cm**-1
    53:    1043.59 cm**-1
    54:    1083.58 cm**-1
    55:    1086.97 cm**-1
    56:    1107.37 cm**-1
    57:    1112.30 cm**-1
    58:    1124.12 cm**-1
    59:    1130.79 cm**-1
    60:    1141.70 cm**-1
    61:    1154.52 cm**-1
    62:    1167.60 cm**-1
    63:    1175.36 cm**-1
    64:    1178.35 cm**-1
    65:    1244.46 cm**-1
    66:    1264.81 cm**-1
    67:    1277.03 cm**-1
    68:    1326.60 cm**-1
    69:    1362.88 cm**-1
    70:    1393.52 cm**-1
    71:    1730.31 cm**-1

IR SPECTRUM
-----------

 Mode   freq       eps      Int      T**2         TX        TY        TZ
       cm**-1   L/(mol*cm) km/mol    a.u.
----------------------------------------------------------------------------
  6:     22.88   0.000295    1.49  0.004028  ( 0.038715  0.032063  0.038742)
  7:     27.16   0.000609    3.08  0.007001  (-0.055737 -0.016398 -0.060211)
  8:     37.50   0.000011    0.06  0.000091  (-0.005342 -0.007395 -0.002713)
  9:     46.67   0.000332    1.68  0.002222  ( 0.014451 -0.036549  0.026021)
 10:     50.24   0.000353    1.78  0.002191  ( 0.016681  0.041497  0.013803)
 11:     60.09   0.000004    0.02  0.000019  (-0.002399 -0.003042 -0.001964)
 12:     64.08   0.000101    0.51  0.000491  ( 0.005843 -0.021155  0.003033)
 13:     74.79   0.000528    2.67  0.002203  ( 0.010001 -0.039803  0.022767)
 14:    102.81   0.000320    1.62  0.000973  ( 0.017359 -0.009583  0.024075)
 15:    132.68   0.000703    3.55  0.001653  ( 0.038998 -0.011011  0.003363)
 16:    148.41   0.001301    6.57  0.002735  ( 0.048266 -0.018176  0.008652)
 17:    186.14   0.000925    4.68  0.001552  (-0.013191  0.005255 -0.036742)
 18:    187.80   0.000587    2.96  0.000975  ( 0.006646  0.009480  0.028996)
 19:    205.50   0.001323    6.69  0.002009  (-0.027640 -0.033251 -0.011799)
 20:    213.68   0.000450    2.28  0.000657  (-0.004747  0.011802  0.022263)
 21:    221.77   0.000501    2.53  0.000705  (-0.002519  0.006493 -0.025617)
 22:    245.74   0.000025    0.13  0.000032  ( 0.001798  0.001532 -0.005140)
 23:    249.30   0.000029    0.15  0.000036  (-0.001366  0.000618 -0.005829)
 24:    261.69   0.000352    1.78  0.000420  (-0.010081  0.000790 -0.017816)
 25:    280.56   0.000760    3.84  0.000845  ( 0.028746 -0.000947 -0.004259)
 26:    297.07   0.000057    0.29  0.000060  ( 0.004722  0.005852 -0.001947)
 27:    309.52   0.000210    1.06  0.000212  ( 0.012519 -0.004926 -0.005565)
 28:    335.90   0.000011    0.06  0.000011  ( 0.002684 -0.000666  0.001736)
 29:    342.58   0.000350    1.77  0.000319  (-0.010403  0.005439 -0.013466)
 30:    354.42   0.000192    0.97  0.000169  (-0.012548  0.000158 -0.003467)
 31:    359.33   0.000068    0.34  0.000059  (-0.004931  0.002749  0.005217)
 32:    368.61   0.000596    3.01  0.000505  (-0.022289  0.002779  0.000203)
 33:    371.59   0.000032    0.16  0.000027  (-0.004398  0.000523  0.002626)
 34:    409.82   0.000480    2.43  0.000365  (-0.016078 -0.009649  0.003729)
 35:    424.03   0.000505    2.55  0.000372  (-0.010689  0.015343 -0.004695)
 36:    456.34   0.000674    3.41  0.000461  ( 0.018685 -0.006431 -0.008389)
 37:    494.48   0.005390   27.24  0.003402  ( 0.057014 -0.011119  0.005255)
 38:    528.64   0.000409    2.07  0.000241  ( 0.013353 -0.007728  0.001820)
 39:    531.87   0.006748   34.10  0.003959  (-0.061128  0.012158  0.008657)
 40:    553.96   0.003908   19.75  0.002202  (-0.021332  0.035447 -0.022138)
 41:    572.06   0.005065   25.60  0.002763  (-0.047091 -0.019793  0.012403)
 42:    591.93   0.000284    1.43  0.000150  (-0.008041  0.009210 -0.000468)
 43:    599.14   0.004607   23.28  0.002400  (-0.047524 -0.003261 -0.011421)
 44:    627.94   0.004308   21.77  0.002141  ( 0.026149 -0.019469 -0.032834)
 45:    653.53   0.031170  157.52  0.014884  ( 0.121514  0.008887 -0.006250)
 46:    658.97   0.012571   63.53  0.005953  ( 0.073556 -0.013900 -0.018696)
 47:    708.73   0.001966    9.93  0.000866  (-0.022820  0.004869  0.017921)
 48:    729.06   0.008465   42.78  0.003623  ( 0.015544  0.022489  0.053630)
 49:    774.06   0.003117   15.75  0.001256  ( 0.028531 -0.008165 -0.019385)
 50:    793.09   0.020305  102.61  0.007989  ( 0.049331  0.018971 -0.072083)
 51:    881.02   0.012371   62.52  0.004382  ( 0.035739  0.030066  0.046909)
 52:    977.57   0.037075  187.36  0.011835  (-0.029665 -0.032671 -0.099437)
 53:   1043.59   0.011399   57.61  0.003409  (-0.046072 -0.030719 -0.018503)
 54:   1083.58   0.027789  140.44  0.008003  ( 0.049689  0.023834  0.070470)
 55:   1086.97   0.087386  441.61  0.025088  ( 0.021820  0.147703  0.052877)
 56:   1107.37   0.010665   53.90  0.003005  (-0.023965  0.031468  0.037959)
 57:   1112.30   0.039510  199.67  0.011085  ( 0.003232  0.006433  0.105038)
 58:   1124.12   0.057138  288.75  0.015862  ( 0.057861  0.106335 -0.034740)
 59:   1130.79   0.094781  478.98  0.026157  (-0.031069 -0.040672 -0.153418)
 60:   1141.70   0.112648  569.28  0.030790  (-0.081406  0.140400 -0.066716)
 61:   1154.52   0.022179  112.08  0.005995  ( 0.059257 -0.041376  0.027777)
 62:   1167.60   0.032756  165.54  0.008755  ( 0.025770 -0.083291  0.033959)
 63:   1175.36   0.093477  472.39  0.024818  ( 0.102647  0.086153 -0.082823)
 64:   1178.35   0.013441   67.92  0.003560  ( 0.007887 -0.030094  0.050909)
 65:   1244.46   0.003823   19.32  0.000959  ( 0.009664  0.015949  0.024719)
 66:   1264.81   0.001979   10.00  0.000488  ( 0.006730 -0.012594 -0.016864)
 67:   1277.03   0.026582  134.34  0.006496  ( 0.061988  0.012023  0.050087)
 68:   1326.60   0.011980   60.54  0.002818  ( 0.048854  0.015288 -0.014060)
 69:   1362.88   0.066708  337.11  0.015274  (-0.095921 -0.024296  0.074049)
 70:   1393.52   0.003466   17.52  0.000776  ( 0.014018 -0.015909  0.018073)
 71:   1730.31   0.161749  817.41  0.029172  ( 0.012615  0.157901  0.063873)

--------------------------
THERMOCHEMISTRY AT 298.15K
--------------------------

Temperature         ...   298.15 K
Pressure            ...     1.00 atm
Total Mass          ...   394.06 AMU
Quasi RRHO          ...     True
Cut-Off Frequency   ...     1.00 cm^-1

Throughout the following assumptions are being made:
  (1) The electronic state is orbitally nondegenerate
      but the spin degeneracy is treated
  (2) There are no thermally accessible electronically excited states
  (3) Hindered rotations indicated by low frequency modes are not
      treated as such but are treated as vibrations and this may
      cause some error
  (4) All equations used are the standard statistical mechanics
      equations for an ideal gas
  (5) All vibrations are strictly harmonic

freq.      22.88  E(vib)   ...       0.56
freq.      27.16  E(vib)   ...       0.55
freq.      37.50  E(vib)   ...       0.54
freq.      46.67  E(vib)   ...       0.53
freq.      50.24  E(vib)   ...       0.52
freq.      60.09  E(vib)   ...       0.51
freq.      64.08  E(vib)   ...       0.51
freq.      74.79  E(vib)   ...       0.49
freq.     102.81  E(vib)   ...       0.46
freq.     132.68  E(vib)   ...       0.42
freq.     148.41  E(vib)   ...       0.41
freq.     186.14  E(vib)   ...       0.37
freq.     187.80  E(vib)   ...       0.36
freq.     205.50  E(vib)   ...       0.35
freq.     213.68  E(vib)   ...       0.34
freq.     221.77  E(vib)   ...       0.33
freq.     245.74  E(vib)   ...       0.31
freq.     249.30  E(vib)   ...       0.31
freq.     261.69  E(vib)   ...       0.30
freq.     280.56  E(vib)   ...       0.28
freq.     297.07  E(vib)   ...       0.27
freq.     309.52  E(vib)   ...       0.26
freq.     335.90  E(vib)   ...       0.24
freq.     342.58  E(vib)   ...       0.23
freq.     354.42  E(vib)   ...       0.22
freq.     359.33  E(vib)   ...       0.22
freq.     368.61  E(vib)   ...       0.21
freq.     371.59  E(vib)   ...       0.21
freq.     409.82  E(vib)   ...       0.19
freq.     424.03  E(vib)   ...       0.18
freq.     456.34  E(vib)   ...       0.16
freq.     494.48  E(vib)   ...       0.14
freq.     528.64  E(vib)   ...       0.13
freq.     531.87  E(vib)   ...       0.13
freq.     553.96  E(vib)   ...       0.12
freq.     572.06  E(vib)   ...       0.11
freq.     591.93  E(vib)   ...       0.10
freq.     599.14  E(vib)   ...       0.10
freq.     627.94  E(vib)   ...       0.09
freq.     653.53  E(vib)   ...       0.08
freq.     658.97  E(vib)   ...       0.08
freq.     708.73  E(vib)   ...       0.07
freq.     729.06  E(vib)   ...       0.06
freq.     774.06  E(vib)   ...       0.05
freq.     793.09  E(vib)   ...       0.05
freq.     881.02  E(vib)   ...       0.04
freq.     977.57  E(vib)   ...       0.03
freq.    1043.59  E(vib)   ...       0.02
freq.    1083.58  E(vib)   ...       0.02
freq.    1086.97  E(vib)   ...       0.02
freq.    1107.37  E(vib)   ...       0.02
freq.    1112.30  E(vib)   ...       0.01
freq.    1124.12  E(vib)   ...       0.01
freq.    1130.79  E(vib)   ...       0.01
freq.    1141.70  E(vib)   ...       0.01
freq.    1154.52  E(vib)   ...       0.01
freq.    1167.60  E(vib)   ...       0.01
freq.    1175.36  E(vib)   ...       0.01
freq.    1178.35  E(vib)   ...       0.01
freq.    1244.46  E(vib)   ...       0.01
freq.    1264.81  E(vib)   ...       0.01
freq.    1277.03  E(vib)   ...       0.01
freq.    1326.60  E(vib)   ...       0.01
freq.    1362.88  E(vib)   ...       0.01
freq.    1393.52  E(vib)   ...       0.00
freq.    1730.31  E(vib)   ...       0.00

------------
INNER ENERGY
------------

The inner energy is: U= E(el) + E(ZPE) + E(vib) + E(rot) + E(trans)
    E(el)   - is the total energy from the electronic structure calculation
              = E(kin-el) + E(nuc-el) + E(el-el) + E(nuc-nuc)
    E(ZPE)  - the the zero temperature vibrational energy from the frequency calculation
    E(vib)  - the the finite temperature correction to E(ZPE) due to population
              of excited vibrational states
    E(rot)  - is the rotational thermal energy
    E(trans)- is the translational thermal energy

Summary of contributions to the inner energy U:
Electronic energy                ...  -1853.28531889 Eh
Zero point energy                ...      0.09256335 Eh      58.08 kcal/mol
Thermal vibrational correction   ...      0.01980269 Eh      12.43 kcal/mol
Thermal rotational correction    ...      0.00141627 Eh       0.89 kcal/mol
Thermal translational correction ...      0.00141627 Eh       0.89 kcal/mol
-----------------------------------------------------------------------
Total thermal energy                  -1853.17012030 Eh

Summary of corrections to the electronic energy:
(perhaps to be used in another calculation)
Total thermal correction                  0.02263523 Eh      14.20 kcal/mol
Non-thermal (ZPE) correction              0.09256335 Eh      58.08 kcal/mol
-----------------------------------------------------------------------
Total correction                          0.11519858 Eh      72.29 kcal/mol

--------
ENTHALPY
--------

The enthalpy is H = U + kB*T
                kB is Boltzmann's constant
Total thermal energy              ...  -1853.17012030 Eh
Thermal Enthalpy correction       ...      0.00094421 Eh       0.59 kcal/mol
-----------------------------------------------------------------------
Total Enthalpy                    ...  -1853.16917609 Eh

Note: Only C1 symmetry has been detected, increase convergence thresholds
      if your molecule has a higher symmetry. Symmetry factor of 1.0 is
      used for the rotational entropy correction.

Note: Rotational entropy computed according to Herzberg
Infrared and Raman Spectra, Chapter V,1, Van Nostrand Reinhold, 1945
Point Group:  C1, Symmetry Number:   1
Rotational constants in cm-1:     0.017601     0.004572     0.004400

Vibrational entropy computed according to the QRRHO of S. Grimme
Chem.Eur.J. 2012 18 9955 using a reference frequency of 100.0 cm-1

-------
ENTROPY
-------

The entropy contributions are T*S = T*(S(el)+S(vib)+S(rot)+S(trans))
     S(el)   - electronic entropy
     S(vib)  - vibrational entropy
     S(rot)  - rotational entropy
     S(trans)- translational entropy
The entropies will be listed as multiplied by the temperature to get
units of energy

Electronic entropy                ...      0.00065446 Eh      0.41 kcal/mol
Vibrational entropy               ...      0.03568661 Eh     22.39 kcal/mol
Rotational entropy                ...      0.01652308 Eh     10.37 kcal/mol
Translational entropy             ...      0.02081341 Eh     13.06 kcal/mol
-----------------------------------------------------------------------

                             ****ORCA TERMINATED NORMALLY****
TOTAL RUN TIME: 0 days 0 hours 19 minutes 32 seconds 624 msec
