                         Program Version 6.0.1  -  RELEASE   -
|  1> !B3LYP def2-TZVP freq d3 TightSCF SlowConv defgrid2
|  2>
|  3> %pal
|  4> nprocs 20
|  5> end
|  6>
|  7> %scf
|  8> MaxIter 1500
|  9> end
| 10>
| 11> %maxcore 8000
| 12>
| 13> !CPCM
| 14> %cpcm smd true
| 15> SMDsolvent "ACETONITRILE"
| 16> end
| 17>
| 18> * xyz 0 2
| 19> 6        4.673202000      0.153349000     -0.467994000
| 20> 8        5.018104000     -0.690531000     -1.427292000
| 21> 8        5.154093000      1.224364000     -0.234880000
| 22> 6        3.494965000     -0.408289000      0.377198000
| 23> 6        2.118286000      0.064288000     -0.190508000
| 24> 6        0.875235000     -0.660342000      0.432316000
| 25> 6       -0.469501000      0.111206000      0.200960000
| 26> 6       -1.763564000     -0.757000000      0.382756000
| 27> 6       -3.009906000      0.068036000      0.477768000
| 28> 6       -4.043784000      0.248400000     -0.592897000
| 29> 9        3.515513000     -1.759882000      0.400586000
| 30> 9        3.628343000      0.045382000      1.638633000
| 31> 9        2.015063000      1.392820000      0.022287000
| 32> 9        2.113357000     -0.159508000     -1.522112000
| 33> 9        0.781748000     -1.887480000     -0.118002000
| 34> 9        1.060273000     -0.799424000      1.759489000
| 35> 9       -0.528489000      1.133461000      1.079894000
| 36> 9       -0.488782000      0.617244000     -1.049969000
| 37> 9       -1.619440000     -1.485258000      1.520604000
| 38> 9       -1.865748000     -1.601872000     -0.667564000
| 39> 9       -3.293406000      0.572949000      1.660695000
| 40> 9       -4.907781000     -0.787605000     -0.653225000
| 41> 9       -4.761592000      1.352932000     -0.353448000
| 42> 9       -3.472862000      0.358962000     -1.801486000
| 43> 1        5.749994000     -0.306648000     -1.950814000
| 44> *
| 45>
| 46>                          ****END OF INPUT****

CARTESIAN COORDINATES (ANGSTROEM)
---------------------------------
  C      4.673202    0.153349   -0.467994
  O      5.018104   -0.690531   -1.427292
  O      5.154093    1.224364   -0.234880
  C      3.494965   -0.408289    0.377198
  C      2.118286    0.064288   -0.190508
  C      0.875235   -0.660342    0.432316
  C     -0.469501    0.111206    0.200960
  C     -1.763564   -0.757000    0.382756
  C     -3.009906    0.068036    0.477768
  C     -4.043784    0.248400   -0.592897
  F      3.515513   -1.759882    0.400586
  F      3.628343    0.045382    1.638633
  F      2.015063    1.392820    0.022287
  F      2.113357   -0.159508   -1.522112
  F      0.781748   -1.887480   -0.118002
  F      1.060273   -0.799424    1.759489
  F     -0.528489    1.133461    1.079894
  F     -0.488782    0.617244   -1.049969
  F     -1.619440   -1.485258    1.520604
  F     -1.865748   -1.601872   -0.667564
  F     -3.293406    0.572949    1.660695
  F     -4.907781   -0.787605   -0.653225
  F     -4.761592    1.352932   -0.353448
  F     -3.472862    0.358962   -1.801486
  H      5.749994   -0.306648   -1.950814

 Total Charge           Charge          ....    0
 Multiplicity           Mult            ....    2
 Number of Electrons    NEL             ....  191
 Basis Dimension        Dim             ....  750

ORBITAL ENERGIES
----------------
                 SPIN UP ORBITALS
  NO   OCC          E(Eh)            E(eV)
   0   1.0000     -24.758634      -673.7167
   1   1.0000     -24.744157      -673.3227
   2   1.0000     -24.743604      -673.3077
   3   1.0000     -24.743324      -673.3001
   4   1.0000     -24.743315      -673.2998
   5   1.0000     -24.743165      -673.2958
   6   1.0000     -24.742783      -673.2853
   7   1.0000     -24.740397      -673.2204
   8   1.0000     -24.738401      -673.1661
   9   1.0000     -24.738129      -673.1587
  10   1.0000     -24.737876      -673.1518
  11   1.0000     -24.734905      -673.0710
  12   1.0000     -24.733219      -673.0251
  13   1.0000     -24.733127      -673.0226
  14   1.0000     -19.207512      -522.6630
  15   1.0000     -19.154663      -521.2249
  16   1.0000     -10.459136      -284.6076
  17   1.0000     -10.408894      -283.2404
  18   1.0000     -10.407948      -283.2147
  19   1.0000     -10.405852      -283.1576
  20   1.0000     -10.405581      -283.1503
  21   1.0000     -10.396596      -282.9058
  22   1.0000     -10.346593      -281.5451
  23   1.0000     -10.328707      -281.0584
  24   1.0000      -1.341926       -36.5157
  25   1.0000      -1.333708       -36.2920
  26   1.0000      -1.319464       -35.9045
  27   1.0000      -1.308517       -35.6066
  28   1.0000      -1.305893       -35.5352
  29   1.0000      -1.301474       -35.4149
  30   1.0000      -1.296836       -35.2887
  31   1.0000      -1.265001       -34.4224
  32   1.0000      -1.257324       -34.2135
  33   1.0000      -1.254407       -34.1342
  34   1.0000      -1.250794       -34.0358
  35   1.0000      -1.248534       -33.9743
  36   1.0000      -1.247902       -33.9571
  37   1.0000      -1.244293       -33.8589
  38   1.0000      -1.146999       -31.2114
  39   1.0000      -1.062841       -28.9214
  40   1.0000      -0.857057       -23.3217
  41   1.0000      -0.840967       -22.8839
  42   1.0000      -0.812570       -22.1112
  43   1.0000      -0.777375       -21.1535
  44   1.0000      -0.739117       -20.1124
  45   1.0000      -0.699182       -19.0257
  46   1.0000      -0.679450       -18.4888
  47   1.0000      -0.669217       -18.2103
  48   1.0000      -0.647126       -17.6092
  49   1.0000      -0.642958       -17.4958
  50   1.0000      -0.637868       -17.3573
  51   1.0000      -0.631333       -17.1794
  52   1.0000      -0.627170       -17.0662
  53   1.0000      -0.623391       -16.9633
  54   1.0000      -0.614773       -16.7288
  55   1.0000      -0.612930       -16.6787
  56   1.0000      -0.610215       -16.6048
  57   1.0000      -0.597818       -16.2675
  58   1.0000      -0.594829       -16.1861
  59   1.0000      -0.587659       -15.9910
  60   1.0000      -0.581824       -15.8322
  61   1.0000      -0.574292       -15.6273
  62   1.0000      -0.538278       -14.6473
  63   1.0000      -0.521123       -14.1805
  64   1.0000      -0.512812       -13.9543
  65   1.0000      -0.512540       -13.9469
  66   1.0000      -0.505863       -13.7652
  67   1.0000      -0.503327       -13.6962
  68   1.0000      -0.498143       -13.5552
  69   1.0000      -0.495486       -13.4828
  70   1.0000      -0.491873       -13.3845
  71   1.0000      -0.489349       -13.3159
  72   1.0000      -0.487683       -13.2705
  73   1.0000      -0.485507       -13.2113
  74   1.0000      -0.478350       -13.0166
  75   1.0000      -0.475561       -12.9407
  76   1.0000      -0.472521       -12.8580
  77   1.0000      -0.467353       -12.7173
  78   1.0000      -0.466300       -12.6887
  79   1.0000      -0.461648       -12.5621
  80   1.0000      -0.456622       -12.4253
  81   1.0000      -0.455576       -12.3968
  82   1.0000      -0.453649       -12.3444
  83   1.0000      -0.449552       -12.2329
  84   1.0000      -0.446352       -12.1459
  85   1.0000      -0.445511       -12.1230
  86   1.0000      -0.442676       -12.0458
  87   1.0000      -0.437645       -11.9089
  88   1.0000      -0.436056       -11.8657
  89   1.0000      -0.430090       -11.7033
  90   1.0000      -0.417690       -11.3659
  91   1.0000      -0.393025       -10.6948
  92   1.0000      -0.361559        -9.8385
  93   1.0000      -0.358117        -9.7449
  94   1.0000      -0.318524        -8.6675
  95   1.0000      -0.275035        -7.4841
  96   0.0000      -0.052447        -1.4272
  97   0.0000      -0.000455        -0.0124
  98   0.0000       0.013366         0.3637
  99   0.0000       0.031668         0.8617
 100   0.0000       0.037619         1.0237

                 SPIN DOWN ORBITALS
  NO   OCC          E(Eh)            E(eV)
   0   1.0000     -24.753983      -673.5901
   1   1.0000     -24.744123      -673.3218
   2   1.0000     -24.743606      -673.3077
   3   1.0000     -24.743324      -673.3001
   4   1.0000     -24.743306      -673.2996
   5   1.0000     -24.743119      -673.2945
   6   1.0000     -24.742780      -673.2853
   7   1.0000     -24.740064      -673.2114
   8   1.0000     -24.737882      -673.1520
   9   1.0000     -24.737835      -673.1507
  10   1.0000     -24.737091      -673.1305
  11   1.0000     -24.734905      -673.0710
  12   1.0000     -24.733218      -673.0251
  13   1.0000     -24.731754      -672.9852
  14   1.0000     -19.207511      -522.6629
  15   1.0000     -19.154659      -521.2248
  16   1.0000     -10.459847      -284.6269
  17   1.0000     -10.408811      -283.2381
  18   1.0000     -10.408791      -283.2376
  19   1.0000     -10.405540      -283.1491
  20   1.0000     -10.405209      -283.1401
  21   1.0000     -10.396582      -282.9054
  22   1.0000     -10.346589      -281.5450
  23   1.0000     -10.314227      -280.6644
  24   1.0000      -1.340249       -36.4700
  25   1.0000      -1.333494       -36.2862
  26   1.0000      -1.318868       -35.8882
  27   1.0000      -1.308109       -35.5955
  28   1.0000      -1.304501       -35.4973
  29   1.0000      -1.301322       -35.4108
  30   1.0000      -1.288464       -35.0609
  31   1.0000      -1.264845       -34.4182
  32   1.0000      -1.256994       -34.2045
  33   1.0000      -1.253474       -34.1088
  34   1.0000      -1.250627       -34.0313
  35   1.0000      -1.246919       -33.9304
  36   1.0000      -1.246048       -33.9067
  37   1.0000      -1.244289       -33.8588
  38   1.0000      -1.146994       -31.2113
  39   1.0000      -1.062835       -28.9212
  40   1.0000      -0.849451       -23.1147
  41   1.0000      -0.833664       -22.6851
  42   1.0000      -0.806955       -21.9584
  43   1.0000      -0.774323       -21.0704
  44   1.0000      -0.737338       -20.0640
  45   1.0000      -0.696097       -18.9418
  46   1.0000      -0.675768       -18.3886
  47   1.0000      -0.668996       -18.2043
  48   1.0000      -0.645435       -17.5632
  49   1.0000      -0.641414       -17.4537
  50   1.0000      -0.636016       -17.3069
  51   1.0000      -0.629581       -17.1318
  52   1.0000      -0.626079       -17.0365
  53   1.0000      -0.618444       -16.8287
  54   1.0000      -0.614326       -16.7167
  55   1.0000      -0.611535       -16.6407
  56   1.0000      -0.609481       -16.5848
  57   1.0000      -0.597128       -16.2487
  58   1.0000      -0.593324       -16.1452
  59   1.0000      -0.586402       -15.9568
  60   1.0000      -0.580862       -15.8061
  61   1.0000      -0.574040       -15.6204
  62   1.0000      -0.521122       -14.1804
  63   1.0000      -0.513164       -13.9639
  64   1.0000      -0.512647       -13.9498
  65   1.0000      -0.508149       -13.8274
  66   1.0000      -0.504244       -13.7212
  67   1.0000      -0.502249       -13.6669
  68   1.0000      -0.495982       -13.4964
  69   1.0000      -0.493558       -13.4304
  70   1.0000      -0.491200       -13.3662
  71   1.0000      -0.488346       -13.2886
  72   1.0000      -0.485803       -13.2194
  73   1.0000      -0.484241       -13.1769
  74   1.0000      -0.477167       -12.9844
  75   1.0000      -0.475252       -12.9323
  76   1.0000      -0.471081       -12.8188
  77   1.0000      -0.466516       -12.6946
  78   1.0000      -0.463538       -12.6135
  79   1.0000      -0.461099       -12.5471
  80   1.0000      -0.455331       -12.3902
  81   1.0000      -0.453927       -12.3520
  82   1.0000      -0.452733       -12.3195
  83   1.0000      -0.449153       -12.2221
  84   1.0000      -0.445676       -12.1275
  85   1.0000      -0.444956       -12.1079
  86   1.0000      -0.442448       -12.0396
  87   1.0000      -0.436832       -11.8868
  88   1.0000      -0.434877       -11.8336
  89   1.0000      -0.428332       -11.6555
  90   1.0000      -0.414974       -11.2920
  91   1.0000      -0.390912       -10.6373
  92   1.0000      -0.361274        -9.8308
  93   1.0000      -0.356451        -9.6995
  94   1.0000      -0.318318        -8.6619
  95   0.0000      -0.129851        -3.5334
  96   0.0000      -0.051727        -1.4076
  97   0.0000       0.001452         0.0395
  98   0.0000       0.017566         0.4780
  99   0.0000       0.034381         0.9356

MULLIKEN ATOMIC CHARGES AND SPIN POPULATIONS
--------------------------------------------
   0 C :    0.227478    0.000168
   1 O :   -0.347661    0.000012
   2 O :   -0.284609    0.000147
   3 C :    0.412375    0.000385
   4 C :    0.309832    0.002011
   5 C :    0.323849    0.004656
   6 C :    0.319068    0.030789
   7 C :    0.383881   -0.011997
   8 C :    0.138999    0.829672
   9 C :    0.491159   -0.008811
  10 F :   -0.177063    0.000005
  11 F :   -0.172140    0.000034
  12 F :   -0.171836    0.000028
  13 F :   -0.172243    0.000070
  14 F :   -0.169308   -0.000044
  15 F :   -0.168119    0.000211
  16 F :   -0.172186    0.000680
  17 F :   -0.173390    0.000498
  18 F :   -0.174592    0.014783
  19 F :   -0.171353    0.006045
  20 F :   -0.138107    0.090020
  21 F :   -0.169123    0.025647
  22 F :   -0.161528    0.005562
  23 F :   -0.164171    0.009410
  24 H :    0.380789    0.000021
Sum of atomic charges         :   -0.0000000

LOEWDIN ATOMIC CHARGES AND SPIN POPULATIONS
-------------------------------------------
   0 C :   -0.488696    0.000148
   1 O :    0.154950    0.000021
   2 O :    0.136008    0.000124
   3 C :   -0.449199    0.000533
   4 C :   -0.452286    0.001649
   5 C :   -0.455147    0.004977
   6 C :   -0.449774    0.023022
   7 C :   -0.477246    0.063904
   8 C :   -0.166170    0.659099
   9 C :   -0.666602    0.058593
  10 F :    0.208867   -0.000006
  11 F :    0.215724    0.000036
  12 F :    0.223517   -0.000031
  13 F :    0.221372    0.000090
  14 F :    0.223047   -0.000037
  15 F :    0.224583    0.000276
  16 F :    0.222685    0.001312
  17 F :    0.222560    0.001002
  18 F :    0.208446    0.015612
  19 F :    0.218511    0.006690
  20 F :    0.268321    0.114989
  21 F :    0.194796    0.029639
  22 F :    0.216613    0.006751
  23 F :    0.212265    0.011598
  24 H :    0.232855    0.000010

  Mayer bond orders larger than 0.100000
B(  0-C ,  1-O ) :   1.3085 B(  0-C ,  2-O ) :   2.0855 B(  0-C ,  3-C ) :   0.8998
B(  1-O , 24-H ) :   0.8216 B(  3-C ,  4-C ) :   0.9418 B(  3-C , 10-F ) :   1.0882
B(  3-C , 11-F ) :   1.1074 B(  4-C ,  5-C ) :   0.9301 B(  4-C , 12-F ) :   1.0790
B(  4-C , 13-F ) :   1.0759 B(  5-C ,  6-C ) :   0.9294 B(  5-C , 14-F ) :   1.0820
B(  5-C , 15-F ) :   1.0850 B(  6-C ,  7-C ) :   0.9307 B(  6-C , 16-F ) :   1.0757
B(  6-C , 17-F ) :   1.0806 B(  7-C ,  8-C ) :   1.0042 B(  7-C , 18-F ) :   1.0718
B(  7-C , 19-F ) :   1.0915 B(  8-C ,  9-C ) :   1.0454 B(  8-C , 20-F ) :   1.1345
B(  9-C , 21-F ) :   1.1315 B(  9-C , 22-F ) :   1.1426 B(  9-C , 23-F ) :   1.1337

Dispersion correction           -0.042896159
FINAL SINGLE POINT ENERGY     -1853.734477531800

DIPOLE MOMENT
-------------

Method             : SCF
Type of density    : Electron Density
Multiplicity       :   2
Irrep              :   0
Energy             : -1853.6915813726216129 Eh
Relativity type    :
Basis              : AO
                                X                 Y                 Z
Electronic contribution:    -13.474531822      -0.864149930       2.466284707
Nuclear contribution   :     14.082986084       0.589989556      -3.165812556
                        -----------------------------------------
Total Dipole Moment    :      0.608454262      -0.274160374      -0.699527849
                        -----------------------------------------
Magnitude (a.u.)       :      0.966809036
Magnitude (Debye)      :      2.457433273

VIBRATIONAL FREQUENCIES
-----------------------

Scaling factor for frequencies =  1.000000000  (already applied!)

     0:       0.00 cm**-1
     1:       0.00 cm**-1
     2:       0.00 cm**-1
     3:       0.00 cm**-1
     4:       0.00 cm**-1
     5:       0.00 cm**-1
     6:      14.59 cm**-1
     7:      20.18 cm**-1
     8:      25.00 cm**-1
     9:      35.47 cm**-1
    10:      43.17 cm**-1
    11:      55.29 cm**-1
    12:      58.53 cm**-1
    13:      70.20 cm**-1
    14:      95.69 cm**-1
    15:     129.19 cm**-1
    16:     150.03 cm**-1
    17:     166.67 cm**-1
    18:     190.57 cm**-1
    19:     198.82 cm**-1
    20:     210.48 cm**-1
    21:     226.71 cm**-1
    22:     247.56 cm**-1
    23:     248.32 cm**-1
    24:     264.01 cm**-1
    25:     271.55 cm**-1
    26:     303.46 cm**-1
    27:     309.26 cm**-1
    28:     323.16 cm**-1
    29:     348.75 cm**-1
    30:     351.73 cm**-1
    31:     362.82 cm**-1
    32:     373.92 cm**-1
    33:     375.55 cm**-1
    34:     405.21 cm**-1
    35:     427.28 cm**-1
    36:     465.92 cm**-1
    37:     503.19 cm**-1
    38:     517.79 cm**-1
    39:     546.21 cm**-1
    40:     553.52 cm**-1
    41:     563.69 cm**-1
    42:     579.07 cm**-1
    43:     587.18 cm**-1
    44:     604.47 cm**-1
    45:     627.22 cm**-1
    46:     635.53 cm**-1
    47:     668.54 cm**-1
    48:     697.49 cm**-1
    49:     713.42 cm**-1
    50:     746.46 cm**-1
    51:     776.29 cm**-1
    52:     876.41 cm**-1
    53:     999.20 cm**-1
    54:    1058.14 cm**-1
    55:    1074.49 cm**-1
    56:    1119.78 cm**-1
    57:    1124.26 cm**-1
    58:    1131.38 cm**-1
    59:    1138.98 cm**-1
    60:    1142.28 cm**-1
    61:    1148.36 cm**-1
    62:    1151.12 cm**-1
    63:    1157.51 cm**-1
    64:    1168.36 cm**-1
    65:    1186.08 cm**-1
    66:    1205.48 cm**-1
    67:    1216.04 cm**-1
    68:    1261.61 cm**-1
    69:    1297.68 cm**-1
    70:    1330.13 cm**-1
    71:    1396.73 cm**-1
    72:    1415.03 cm**-1
    73:    1822.65 cm**-1
    74:    3612.63 cm**-1

IR SPECTRUM
-----------

 Mode   freq       eps      Int      T**2         TX        TY        TZ
       cm**-1   L/(mol*cm) km/mol    a.u.
----------------------------------------------------------------------------
  6:     14.59   0.000097    0.49  0.002079  (-0.007962 -0.044729  0.003904)
  7:     20.18   0.000158    0.80  0.002441  (-0.016908  0.041338 -0.021124)
  8:     25.00   0.000105    0.53  0.001312  (-0.021016 -0.024485  0.016464)
  9:     35.47   0.000052    0.26  0.000454  (-0.000895 -0.016842 -0.013012)
 10:     43.17   0.000234    1.18  0.001689  ( 0.020728 -0.019135  0.029886)
 11:     55.29   0.000384    1.94  0.002170  ( 0.032459 -0.013797  0.030424)
 12:     58.53   0.000038    0.19  0.000204  (-0.013667  0.000978 -0.003986)
 13:     70.20   0.000202    1.02  0.000899  ( 0.026083  0.013912  0.005005)
 14:     95.69   0.000022    0.11  0.000072  (-0.000665 -0.000808 -0.008408)
 15:    129.19   0.000184    0.93  0.000444  (-0.010902  0.013276  0.012223)
 16:    150.03   0.000425    2.15  0.000884  ( 0.025724  0.006524  0.013420)
 17:    166.67   0.000661    3.34  0.001237  ( 0.013304 -0.008565 -0.031409)
 18:    190.57   0.000033    0.16  0.000053  ( 0.001136 -0.007137 -0.001103)
 19:    198.82   0.001697    8.57  0.002663  ( 0.009275 -0.019631 -0.046814)
 20:    210.48   0.000568    2.87  0.000842  (-0.025413 -0.012124 -0.007035)
 21:    226.71   0.000244    1.24  0.000337  ( 0.016875 -0.006638  0.002771)
 22:    247.56   0.000098    0.49  0.000123  (-0.009258 -0.004242  0.004402)
 23:    248.32   0.000085    0.43  0.000107  ( 0.009198 -0.004634 -0.000826)
 24:    264.01   0.000324    1.64  0.000383  (-0.014301 -0.009902  0.008943)
 25:    271.55   0.000383    1.94  0.000440  ( 0.020005 -0.002434  0.005825)
 26:    303.46   0.000361    1.82  0.000371  (-0.016448  0.008847  0.004718)
 27:    309.26   0.000039    0.19  0.000039  ( 0.004710 -0.003095  0.002674)
 28:    323.16   0.000081    0.41  0.000079  ( 0.002241 -0.006196 -0.005924)
 29:    348.75   0.000232    1.17  0.000208  (-0.005203 -0.008812 -0.010158)
 30:    351.73   0.000102    0.51  0.000090  (-0.005819  0.002484  0.007082)
 31:    362.82   0.000203    1.02  0.000174  (-0.013130 -0.001265  0.000641)
 32:    373.92   0.000068    0.35  0.000057  ( 0.005382  0.005035 -0.001651)
 33:    375.55   0.000843    4.26  0.000701  ( 0.021778  0.014883  0.002226)
 34:    405.21   0.000498    2.51  0.000383  ( 0.018997  0.004295  0.001969)
 35:    427.28   0.002267   11.45  0.001655  (-0.039731  0.008678 -0.001247)
 36:    465.92   0.001517    7.67  0.001016  (-0.016513  0.020767  0.017671)
 37:    503.19   0.000395    2.00  0.000245  (-0.011897  0.009673 -0.003171)
 38:    517.79   0.006278   31.73  0.003784  ( 0.055433  0.003657 -0.026409)
 39:    546.21   0.006281   31.74  0.003588  ( 0.058571 -0.009825 -0.007833)
 40:    553.52   0.001369    6.92  0.000772  ( 0.012344 -0.020777  0.013706)
 41:    563.69   0.010402   52.57  0.005758  (-0.004490  0.055279 -0.051792)
 42:    579.07   0.005709   28.85  0.003077  ( 0.048724 -0.008202 -0.025207)
 43:    587.18   0.006423   32.46  0.003413  (-0.041065  0.011569 -0.039915)
 44:    604.47   0.004721   23.86  0.002437  ( 0.034393 -0.007809  0.034548)
 45:    627.22   0.008800   44.47  0.004378  (-0.044068 -0.008606  0.048603)
 46:    635.53   0.067183  339.51  0.032988  (-0.174026  0.044483 -0.026919)
 47:    668.54   0.001048    5.29  0.000489  ( 0.009653  0.006884 -0.018665)
 48:    697.49   0.011038   55.78  0.004939  ( 0.055830  0.006473  0.042187)
 49:    713.42   0.002010   10.16  0.000879  ( 0.025974  0.006827 -0.012571)
 50:    746.46   0.001748    8.83  0.000731  ( 0.022800  0.012393  0.007573)
 51:    776.29   0.010528   53.20  0.004232  ( 0.035307  0.019676 -0.050974)
 52:    876.41   0.003999   20.21  0.001424  ( 0.027906 -0.020194  0.015410)
 53:    999.20   0.022306  112.72  0.006966  ( 0.066795 -0.026490  0.042462)
 54:   1058.14   0.015616   78.92  0.004606  ( 0.043930  0.041570  0.030783)
 55:   1074.49   0.097193  491.17  0.028227  ( 0.065129  0.148707 -0.043268)
 56:   1119.78   0.022548  113.95  0.006284  ( 0.034595 -0.062346  0.034642)
 57:   1124.26   0.076992  389.09  0.021371  (-0.003542 -0.132782  0.061050)
 58:   1131.38   0.030419  153.73  0.008390  (-0.010516 -0.015050  0.089740)
 59:   1138.98   0.001395    7.05  0.000382  (-0.006624 -0.015384  0.010088)
 60:   1142.28   0.029136  147.24  0.007960  (-0.003440 -0.076773  0.045320)
 61:   1148.36   0.129890  656.41  0.035297  ( 0.014682 -0.096552 -0.160497)
 62:   1151.12   0.028653  144.80  0.007768  (-0.054874 -0.025381 -0.064127)
 63:   1157.51   0.205256  1037.28  0.055337  ( 0.033362 -0.116201 -0.201795)
 64:   1168.36   0.017404   87.96  0.004649  ( 0.012357 -0.060531 -0.028844)
 65:   1186.08   0.016112   81.43  0.004239  (-0.029822  0.021650  0.053677)
 66:   1205.48   0.001464    7.40  0.000379  (-0.005444 -0.015238  0.010820)
 67:   1216.04   0.009425   47.63  0.002419  (-0.032796  0.010242 -0.035188)
 68:   1261.61   0.001192    6.02  0.000295  (-0.001485 -0.014966 -0.008280)
 69:   1297.68   0.001294    6.54  0.000311  ( 0.010634  0.011419  0.008224)
 70:   1330.13   0.042877  216.68  0.010059  ( 0.071111 -0.053029  0.046801)
 71:   1396.73   0.026703  134.95  0.005966  ( 0.061124 -0.031592 -0.035099)
 72:   1415.03   0.009559   48.31  0.002108  ( 0.042568 -0.009738 -0.014185)
 73:   1822.65   0.094486  477.49  0.016177  ( 0.038699  0.110357  0.050010)
 74:   3612.63   0.051530  260.41  0.004451  (-0.048045 -0.004432  0.046079)

--------------------------
THERMOCHEMISTRY AT 298.15K
--------------------------

Temperature         ...   298.15 K
Pressure            ...     1.00 atm
Total Mass          ...   395.07 AMU
Quasi RRHO          ...     True
Cut-Off Frequency   ...     1.00 cm^-1

Throughout the following assumptions are being made:
  (1) The electronic state is orbitally nondegenerate
      but the spin degeneracy is treated
  (2) There are no thermally accessible electronically excited states
  (3) Hindered rotations indicated by low frequency modes are not
      treated as such but are treated as vibrations and this may
      cause some error
  (4) All equations used are the standard statistical mechanics
      equations for an ideal gas
  (5) All vibrations are strictly harmonic

freq.      14.59  E(vib)   ...       0.57
freq.      20.18  E(vib)   ...       0.56
freq.      25.00  E(vib)   ...       0.56
freq.      35.47  E(vib)   ...       0.54
freq.      43.17  E(vib)   ...       0.53
freq.      55.29  E(vib)   ...       0.52
freq.      58.53  E(vib)   ...       0.51
freq.      70.20  E(vib)   ...       0.50
freq.      95.69  E(vib)   ...       0.47
freq.     129.19  E(vib)   ...       0.43
freq.     150.03  E(vib)   ...       0.40
freq.     166.67  E(vib)   ...       0.39
freq.     190.57  E(vib)   ...       0.36
freq.     198.82  E(vib)   ...       0.35
freq.     210.48  E(vib)   ...       0.34
freq.     226.71  E(vib)   ...       0.33
freq.     247.56  E(vib)   ...       0.31
freq.     248.32  E(vib)   ...       0.31
freq.     264.01  E(vib)   ...       0.29
freq.     271.55  E(vib)   ...       0.29
freq.     303.46  E(vib)   ...       0.26
freq.     309.26  E(vib)   ...       0.26
freq.     323.16  E(vib)   ...       0.25
freq.     348.75  E(vib)   ...       0.23
freq.     351.73  E(vib)   ...       0.23
freq.     362.82  E(vib)   ...       0.22
freq.     373.92  E(vib)   ...       0.21
freq.     375.55  E(vib)   ...       0.21
freq.     405.21  E(vib)   ...       0.19
freq.     427.28  E(vib)   ...       0.18
freq.     465.92  E(vib)   ...       0.16
freq.     503.19  E(vib)   ...       0.14
freq.     517.79  E(vib)   ...       0.13
freq.     546.21  E(vib)   ...       0.12
freq.     553.52  E(vib)   ...       0.12
freq.     563.69  E(vib)   ...       0.11
freq.     579.07  E(vib)   ...       0.11
freq.     587.18  E(vib)   ...       0.10
freq.     604.47  E(vib)   ...       0.10
freq.     627.22  E(vib)   ...       0.09
freq.     635.53  E(vib)   ...       0.09
freq.     668.54  E(vib)   ...       0.08
freq.     697.49  E(vib)   ...       0.07
freq.     713.42  E(vib)   ...       0.07
freq.     746.46  E(vib)   ...       0.06
freq.     776.29  E(vib)   ...       0.05
freq.     876.41  E(vib)   ...       0.04
freq.     999.20  E(vib)   ...       0.02
freq.    1058.14  E(vib)   ...       0.02
freq.    1074.49  E(vib)   ...       0.02
freq.    1119.78  E(vib)   ...       0.01
freq.    1124.26  E(vib)   ...       0.01
freq.    1131.38  E(vib)   ...       0.01
freq.    1138.98  E(vib)   ...       0.01
freq.    1142.28  E(vib)   ...       0.01
freq.    1148.36  E(vib)   ...       0.01
freq.    1151.12  E(vib)   ...       0.01
freq.    1157.51  E(vib)   ...       0.01
freq.    1168.36  E(vib)   ...       0.01
freq.    1186.08  E(vib)   ...       0.01
freq.    1205.48  E(vib)   ...       0.01
freq.    1216.04  E(vib)   ...       0.01
freq.    1261.61  E(vib)   ...       0.01
freq.    1297.68  E(vib)   ...       0.01
freq.    1330.13  E(vib)   ...       0.01
freq.    1396.73  E(vib)   ...       0.00
freq.    1415.03  E(vib)   ...       0.00
freq.    1822.65  E(vib)   ...       0.00
freq.    3612.63  E(vib)   ...       0.00

------------
INNER ENERGY
------------

The inner energy is: U= E(el) + E(ZPE) + E(vib) + E(rot) + E(trans)
    E(el)   - is the total energy from the electronic structure calculation
              = E(kin-el) + E(nuc-el) + E(el-el) + E(nuc-nuc)
    E(ZPE)  - the the zero temperature vibrational energy from the frequency calculation
    E(vib)  - the the finite temperature correction to E(ZPE) due to population
              of excited vibrational states
    E(rot)  - is the rotational thermal energy
    E(trans)- is the translational thermal energy

Summary of contributions to the inner energy U:
Electronic energy                ...  -1853.73447753 Eh
Zero point energy                ...      0.10507700 Eh      65.94 kcal/mol
Thermal vibrational correction   ...      0.02017756 Eh      12.66 kcal/mol
Thermal rotational correction    ...      0.00141627 Eh       0.89 kcal/mol
Thermal translational correction ...      0.00141627 Eh       0.89 kcal/mol
-----------------------------------------------------------------------
Total thermal energy                  -1853.60639043 Eh

Summary of corrections to the electronic energy:
(perhaps to be used in another calculation)
Total thermal correction                  0.02301010 Eh      14.44 kcal/mol
Non-thermal (ZPE) correction              0.10507700 Eh      65.94 kcal/mol
-----------------------------------------------------------------------
Total correction                          0.12808710 Eh      80.38 kcal/mol

--------
ENTHALPY
--------

The enthalpy is H = U + kB*T
                kB is Boltzmann's constant
Total thermal energy              ...  -1853.60639043 Eh
Thermal Enthalpy correction       ...      0.00094421 Eh       0.59 kcal/mol
-----------------------------------------------------------------------
Total Enthalpy                    ...  -1853.60544623 Eh

Note: Only C1 symmetry has been detected, increase convergence thresholds
      if your molecule has a higher symmetry. Symmetry factor of 1.0 is
      used for the rotational entropy correction.

Note: Rotational entropy computed according to Herzberg
Infrared and Raman Spectra, Chapter V,1, Van Nostrand Reinhold, 1945
Point Group:  C1, Symmetry Number:   1
Rotational constants in cm-1:     0.020622     0.004034     0.003965

Vibrational entropy computed according to the QRRHO of S. Grimme
Chem.Eur.J. 2012 18 9955 using a reference frequency of 100.0 cm-1

-------
ENTROPY
-------

The entropy contributions are T*S = T*(S(el)+S(vib)+S(rot)+S(trans))
     S(el)   - electronic entropy
     S(vib)  - vibrational entropy
     S(rot)  - rotational entropy
     S(trans)- translational entropy
The entropies will be listed as multiplied by the temperature to get
units of energy

Electronic entropy                ...      0.00065446 Eh      0.41 kcal/mol
Vibrational entropy               ...      0.03685601 Eh     23.13 kcal/mol

                             ****ORCA TERMINATED NORMALLY****
TOTAL RUN TIME: 0 days 0 hours 19 minutes 2 seconds 38 msec
