                         Program Version 6.0.1  -  RELEASE   -
|  1> !r2scanh def2-TZVP opt d3 TightSCF SlowConv defgrid2
|  2>
|  3> %pal
|  4> nprocs 20
|  5> end
|  6>
|  7> %scf
|  8> MaxIter 1500
|  9> end
| 10>
| 11> %maxcore 8000
| 12>
| 13> !CPCM
| 14> %cpcm smd true
| 15> SMDsolvent "ACETONITRILE"
| 16> end
| 17>
| 18> * xyz 0 2
| 19> 6        4.790427000     -0.033865800     -0.529943200
| 20> 8        5.449345000     -1.206924000     -0.894594600
| 21> 8        4.978223000      1.323071000     -0.737377200
| 22> 6        3.506687600     -0.338741600      0.376153800
| 23> 6        2.222300000      0.400524800     -0.110681600
| 24> 6        0.900506800     -0.386389800      0.175703000
| 25> 6       -0.395261200      0.487294000      0.065549000
| 26> 6       -1.705693600     -0.364773800     -0.068373600
| 27> 6       -3.005136200      0.445344800      0.258164000
| 28> 6       -4.319880200     -0.214526000     -0.270540800
| 29> 9        3.211587400     -1.692050400      0.412735200
| 30> 9        3.741061800      0.055285800      1.689948800
| 31> 9        2.125696800      1.616867800      0.483236600
| 32> 9        2.314152400      0.589704000     -1.455769200
| 33> 9        0.794028800     -1.413561400     -0.700839000
| 34> 9        0.958350600     -0.884509000      1.435093400
| 35> 9       -0.498373400      1.260265600      1.173340200
| 36> 9       -0.299075000      1.289512600     -1.020910800
| 37> 9       -1.641790400     -1.418189000      0.779523800
| 38> 9       -1.792381400     -0.831391600     -1.336863600
| 39> 9       -2.918792200      1.679227200     -0.295171200
| 40> 9       -3.119771000      0.573779800      1.598579800
| 41> 9       -4.383115600     -1.504377600      0.089127600
| 42> 9       -5.365669800      0.430528600      0.260394200
| 43> 1        5.903122371     -2.014774547     -1.145719253
| 44> *
| 45>
| 46>                          ****END OF INPUT****
 Total Charge           Charge          ....    0
 Multiplicity           Mult            ....    2
 Number of Electrons    NEL             ....  191
Dispersion correction           -0.008232454
FINAL SINGLE POINT ENERGY     -1853.434395745999
Dispersion correction             ... done (  0.0 sec)
Dispersion correction           -0.008293373
FINAL SINGLE POINT ENERGY     -1853.490225034868
Dispersion correction             ... done (  0.0 sec)
Dispersion correction           -0.008332327
FINAL SINGLE POINT ENERGY     -1853.500924384820
Dispersion correction             ... done (  0.0 sec)
FINAL SINGLE POINT ENERGY     -1853.506435239033
FINAL SINGLE POINT ENERGY     -1853.506365815038
FINAL SINGLE POINT ENERGY     -1853.507253985593
FINAL SINGLE POINT ENERGY     -1853.508231823964
FINAL SINGLE POINT ENERGY     -1853.509530542490
FINAL SINGLE POINT ENERGY     -1853.512202263430
FINAL SINGLE POINT ENERGY     -1853.517560160275
FINAL SINGLE POINT ENERGY     -1853.549717673160
FINAL SINGLE POINT ENERGY     -1853.549727834586
FINAL SINGLE POINT ENERGY     -1853.549744128266
FINAL SINGLE POINT ENERGY     -1853.549752342320
FINAL SINGLE POINT ENERGY     -1853.549761516897
FINAL SINGLE POINT ENERGY     -1853.549771836348
FINAL SINGLE POINT ENERGY     -1853.549777436024
Dispersion correction             ... done (  0.0 sec)
Dispersion correction           -0.008345690
FINAL SINGLE POINT ENERGY     -1853.549779961543
Dispersion correction             ... done (  0.0 sec)
Dispersion correction           -0.008345406
FINAL SINGLE POINT ENERGY     -1853.549781138141
Dispersion correction             ... done (  0.1 sec)
                    ***********************HURRAY********************

CARTESIAN COORDINATES (ANGSTROEM)
---------------------------------
  C      4.742154   -0.047178   -0.273600
  O      5.098696   -0.886081   -1.225853
  O      5.279182    0.974634    0.036484
  C      3.458081   -0.527516    0.440651
  C      2.203326    0.147018   -0.180222
  C      0.860932   -0.522736    0.240525
  C     -0.372253    0.404751    0.019770
  C     -1.719652   -0.377803    0.009104
  C     -2.960129    0.528706    0.237413
  C     -4.240745   -0.155661   -0.179864
  F      3.317906   -1.862524    0.351519
  F      3.538297   -0.186611    1.734664
  F      2.193756    1.436871    0.190208
  F      2.312187    0.083974   -1.518032
  F      0.696666   -1.640470   -0.483220
  F      0.923067   -0.850518    1.538959
  F     -0.404022    1.317050    1.001648
  F     -0.234868    1.034226   -1.156987
  F     -1.692195   -1.313330    0.972011
  F     -1.854390   -0.982803   -1.180873
  F     -2.830571    1.655476   -0.484797
  F     -3.011134    0.876502    1.544610
  F     -4.444347   -1.336428    0.367013
  F     -5.302737    0.616489   -0.097659
  H      5.893343   -0.538706   -1.672705

 Multiplicity           Mult            ....    2
 Number of Electrons    NEL             ....  191
 Basis Dimension        Dim             ....  750

ORBITAL ENERGIES
----------------
                 SPIN UP ORBITALS
  NO   OCC          E(Eh)            E(eV)
   0   1.0000     -24.737689      -673.1467
   1   1.0000     -24.736606      -673.1173
   2   1.0000     -24.734174      -673.0511
   3   1.0000     -24.734059      -673.0480
   4   1.0000     -24.733710      -673.0385
   5   1.0000     -24.733461      -673.0317
   6   1.0000     -24.733431      -673.0309
   7   1.0000     -24.733103      -673.0219
   8   1.0000     -24.732699      -673.0109
   9   1.0000     -24.732163      -672.9964
  10   1.0000     -24.728400      -672.8940
  11   1.0000     -24.724313      -672.7828
  12   1.0000     -24.723622      -672.7639
  13   1.0000     -24.721873      -672.7164
  14   1.0000     -19.197238      -522.3834
  15   1.0000     -19.141308      -520.8615
  16   1.0000     -10.389644      -282.7166
  17   1.0000     -10.389238      -282.7055
  18   1.0000     -10.387301      -282.6528
  19   1.0000     -10.385398      -282.6010
  20   1.0000     -10.383396      -282.5466
  21   1.0000     -10.376209      -282.3510
  22   1.0000     -10.360744      -281.9302
  23   1.0000     -10.326625      -281.0018
  24   1.0000      -1.345773       -36.6204
  25   1.0000      -1.335524       -36.3415
  26   1.0000      -1.327755       -36.1300
  27   1.0000      -1.318293       -35.8726
  28   1.0000      -1.316884       -35.8342
  29   1.0000      -1.309683       -35.6383
  30   1.0000      -1.309235       -35.6261
  31   1.0000      -1.274673       -34.6856
  32   1.0000      -1.269337       -34.5404
  33   1.0000      -1.267275       -34.4843
  34   1.0000      -1.261352       -34.3231
  35   1.0000      -1.258523       -34.2462
  36   1.0000      -1.252897       -34.0931
  37   1.0000      -1.251393       -34.0521
  38   1.0000      -1.153053       -31.3762
  39   1.0000      -1.066032       -29.0082
  40   1.0000      -0.851606       -23.1734
  41   1.0000      -0.835987       -22.7484
  42   1.0000      -0.811305       -22.0767
  43   1.0000      -0.775489       -21.1021
  44   1.0000      -0.730700       -19.8834
  45   1.0000      -0.689532       -18.7631
  46   1.0000      -0.673944       -18.3389
  47   1.0000      -0.662066       -18.0157
  48   1.0000      -0.640058       -17.4169
  49   1.0000      -0.638344       -17.3702
  50   1.0000      -0.628375       -17.0990
  51   1.0000      -0.620677       -16.8895
  52   1.0000      -0.615650       -16.7527
  53   1.0000      -0.614058       -16.7094
  54   1.0000      -0.603041       -16.4096
  55   1.0000      -0.597958       -16.2713
  56   1.0000      -0.593915       -16.1612
  57   1.0000      -0.590985       -16.0815
  58   1.0000      -0.580663       -15.8007
  59   1.0000      -0.579860       -15.7788
  60   1.0000      -0.573068       -15.5940
  61   1.0000      -0.563585       -15.3359
  62   1.0000      -0.547193       -14.8899
  63   1.0000      -0.512734       -13.9522
  64   1.0000      -0.505834       -13.7644
  65   1.0000      -0.503912       -13.7121
  66   1.0000      -0.496315       -13.5054
  67   1.0000      -0.494001       -13.4424
  68   1.0000      -0.490142       -13.3374
  69   1.0000      -0.483589       -13.1591
  70   1.0000      -0.478641       -13.0245
  71   1.0000      -0.475952       -12.9513
  72   1.0000      -0.474992       -12.9252
  73   1.0000      -0.472097       -12.8464
  74   1.0000      -0.467850       -12.7309
  75   1.0000      -0.465769       -12.6742
  76   1.0000      -0.461245       -12.5511
  77   1.0000      -0.455816       -12.4034
  78   1.0000      -0.451898       -12.2968
  79   1.0000      -0.448352       -12.2003
  80   1.0000      -0.443735       -12.0746
  81   1.0000      -0.443184       -12.0596
  82   1.0000      -0.440141       -11.9768
  83   1.0000      -0.436256       -11.8711
  84   1.0000      -0.435285       -11.8447
  85   1.0000      -0.431423       -11.7396
  86   1.0000      -0.430752       -11.7214
  87   1.0000      -0.428933       -11.6719
  88   1.0000      -0.424889       -11.5618
  89   1.0000      -0.418130       -11.3779
  90   1.0000      -0.401760       -10.9324
  91   1.0000      -0.372693       -10.1415
  92   1.0000      -0.351519        -9.5653
  93   1.0000      -0.338290        -9.2053
  94   1.0000      -0.303786        -8.2664
  95   1.0000      -0.259132        -7.0513
  96   0.0000      -0.063486        -1.7275
  97   0.0000      -0.014852        -0.4041
  98   0.0000       0.001657         0.0451
  99   0.0000       0.028254         0.7688
 100   0.0000       0.041516         1.1297

                 SPIN DOWN ORBITALS
  NO   OCC          E(Eh)            E(eV)
   0   1.0000     -24.734177      -673.0512
   1   1.0000     -24.734053      -673.0478
   2   1.0000     -24.733708      -673.0384
   3   1.0000     -24.733472      -673.0320
   4   1.0000     -24.733437      -673.0310
   5   1.0000     -24.733431      -673.0309
   6   1.0000     -24.732860      -673.0153
   7   1.0000     -24.732698      -673.0109
   8   1.0000     -24.732358      -673.0017
   9   1.0000     -24.732164      -672.9964
  10   1.0000     -24.728421      -672.8945
  11   1.0000     -24.723622      -672.7639
  12   1.0000     -24.722529      -672.7342
  13   1.0000     -24.721873      -672.7164
  14   1.0000     -19.197238      -522.3834
  15   1.0000     -19.141308      -520.8615
  16   1.0000     -10.389662      -282.7171
  17   1.0000     -10.389246      -282.7058
  18   1.0000     -10.387386      -282.6551
  19   1.0000     -10.385400      -282.6011
  20   1.0000     -10.382755      -282.5291
  21   1.0000     -10.376210      -282.3510
  22   1.0000     -10.343087      -281.4497
  23   1.0000     -10.326625      -281.0018
  24   1.0000      -1.345481       -36.6124
  25   1.0000      -1.333321       -36.2815
  26   1.0000      -1.323512       -36.0146
  27   1.0000      -1.316979       -35.8368
  28   1.0000      -1.316745       -35.8304
  29   1.0000      -1.309581       -35.6355
  30   1.0000      -1.306830       -35.5607
  31   1.0000      -1.274566       -34.6827
  32   1.0000      -1.267521       -34.4910
  33   1.0000      -1.262441       -34.3528
  34   1.0000      -1.260951       -34.3122
  35   1.0000      -1.258484       -34.2451
  36   1.0000      -1.251395       -34.0522
  37   1.0000      -1.250990       -34.0412
  38   1.0000      -1.153053       -31.3762
  39   1.0000      -1.066032       -29.0082
  40   1.0000      -0.850800       -23.1514
  41   1.0000      -0.833216       -22.6730
  42   1.0000      -0.806959       -21.9585
  43   1.0000      -0.770211       -20.9585
  44   1.0000      -0.725341       -19.7375
  45   1.0000      -0.685593       -18.6559
  46   1.0000      -0.669618       -18.2212
  47   1.0000      -0.661951       -18.0126
  48   1.0000      -0.639586       -17.4040
  49   1.0000      -0.636575       -17.3221
  50   1.0000      -0.628078       -17.0909
  51   1.0000      -0.619102       -16.8466
  52   1.0000      -0.614246       -16.7145
  53   1.0000      -0.612075       -16.6554
  54   1.0000      -0.600817       -16.3491
  55   1.0000      -0.596784       -16.2393
  56   1.0000      -0.590352       -16.0643
  57   1.0000      -0.588208       -16.0060
  58   1.0000      -0.578535       -15.7427
  59   1.0000      -0.577564       -15.7163
  60   1.0000      -0.571533       -15.5522
  61   1.0000      -0.563392       -15.3307
  62   1.0000      -0.514965       -14.0129
  63   1.0000      -0.512721       -13.9518
  64   1.0000      -0.504984       -13.7413
  65   1.0000      -0.503726       -13.7071
  66   1.0000      -0.494436       -13.4543
  67   1.0000      -0.493562       -13.4305
  68   1.0000      -0.489187       -13.3115
  69   1.0000      -0.482898       -13.1403
  70   1.0000      -0.478047       -13.0083
  71   1.0000      -0.475607       -12.9419
  72   1.0000      -0.473740       -12.8911
  73   1.0000      -0.470112       -12.7924
  74   1.0000      -0.465449       -12.6655
  75   1.0000      -0.460964       -12.5435
  76   1.0000      -0.455798       -12.4029
  77   1.0000      -0.453530       -12.3412
  78   1.0000      -0.449965       -12.2442
  79   1.0000      -0.448142       -12.1946
  80   1.0000      -0.443206       -12.0603
  81   1.0000      -0.440326       -11.9819
  82   1.0000      -0.439927       -11.9710
  83   1.0000      -0.435759       -11.8576
  84   1.0000      -0.434329       -11.8187
  85   1.0000      -0.430393       -11.7116
  86   1.0000      -0.429859       -11.6971
  87   1.0000      -0.428324       -11.6553
  88   1.0000      -0.423736       -11.5305
  89   1.0000      -0.416993       -11.3470
  90   1.0000      -0.399749       -10.8777
  91   1.0000      -0.370181       -10.0731
  92   1.0000      -0.351475        -9.5641
  93   1.0000      -0.336399        -9.1539
  94   1.0000      -0.303706        -8.2643
  95   0.0000      -0.094658        -2.5758
  96   0.0000      -0.063388        -1.7249
  97   0.0000      -0.012948        -0.3523
  98   0.0000       0.004242         0.1154
  99   0.0000       0.031680         0.8621

MULLIKEN ATOMIC CHARGES AND SPIN POPULATIONS
--------------------------------------------
   0 C :    0.281294   -0.000007
   1 O :   -0.365026   -0.000001
   2 O :   -0.326269   -0.000006
   3 C :    0.413797   -0.000026
   4 C :    0.287898   -0.000082
   5 C :    0.320795   -0.000238
   6 C :    0.328853   -0.001328
   7 C :    0.307219   -0.003642
   8 C :    0.387403   -0.003885
   9 C :    0.264315    0.845688
  10 F :   -0.173836    0.000000
  11 F :   -0.169862   -0.000002
  12 F :   -0.165662    0.000002
  13 F :   -0.167934   -0.000005
  14 F :   -0.163351    0.000001
  15 F :   -0.162124   -0.000011
  16 F :   -0.162069    0.000027
  17 F :   -0.162929   -0.000051
  18 F :   -0.164860    0.000490
  19 F :   -0.162494    0.001327
  20 F :   -0.169236   -0.001374
  21 F :   -0.171805    0.033198
  22 F :   -0.147194    0.064388
  23 F :   -0.146239    0.065537
  24 H :    0.389316   -0.000001
Sum of atomic charges         :   -0.0000000

LOEWDIN ATOMIC CHARGES AND SPIN POPULATIONS
-------------------------------------------
   0 C :   -0.496649   -0.000006
   1 O :    0.161704   -0.000001
   2 O :    0.134459   -0.000005
   3 C :   -0.464164   -0.000025
   4 C :   -0.468197   -0.000071
   5 C :   -0.471071   -0.000231
   6 C :   -0.470949   -0.000710
   7 C :   -0.468754   -0.000833
   8 C :   -0.502744    0.071181
   9 C :   -0.393970    0.719372
  10 F :    0.217150    0.000001
  11 F :    0.223144   -0.000002
  12 F :    0.233023    0.000004
  13 F :    0.229719   -0.000005
  14 F :    0.232616    0.000056
  15 F :    0.234148   -0.000009
  16 F :    0.234297    0.000150
  17 F :    0.232974   -0.000056
  18 F :    0.230980    0.000526
  19 F :    0.234447    0.004752
  20 F :    0.224569    0.000006
  21 F :    0.206412    0.032811
  22 F :    0.235031    0.086296
  23 F :    0.236598    0.086799
  24 H :    0.235226   -0.000000

  Mayer bond orders larger than 0.100000
B(  0-C ,  1-O ) :   1.2962 B(  0-C ,  2-O ) :   2.0426 B(  0-C ,  3-C ) :   0.8816
B(  1-O , 24-H ) :   0.8170 B(  3-C ,  4-C ) :   0.9504 B(  3-C , 10-F ) :   1.0805
B(  3-C , 11-F ) :   1.1005 B(  4-C ,  5-C ) :   0.9316 B(  4-C , 12-F ) :   1.0829
B(  4-C , 13-F ) :   1.0776 B(  5-C ,  6-C ) :   0.9319 B(  5-C , 14-F ) :   1.0817
B(  5-C , 15-F ) :   1.0849 B(  6-C ,  7-C ) :   0.9312 B(  6-C , 16-F ) :   1.0859
B(  6-C , 17-F ) :   1.0813 B(  7-C ,  8-C ) :   0.9291 B(  7-C , 18-F ) :   1.0792
B(  7-C , 19-F ) :   1.0882 B(  8-C ,  9-C ) :   0.9517 B(  8-C , 20-F ) :   1.0725
B(  8-C , 21-F ) :   1.0728 B(  9-C , 22-F ) :   1.1155 B(  9-C , 23-F ) :   1.1191

Dispersion correction           -0.008345294
FINAL SINGLE POINT ENERGY     -1853.549781728824

DIPOLE MOMENT
-------------

Method             : SCF
Type of density    : Electron Density
Multiplicity       :   2
Irrep              :   0
Energy             : -1853.5414364352354823 Eh
Relativity type    :
Basis              : AO
                                X                 Y                 Z
Electronic contribution:    -13.451575406      -0.258817807       2.066575920
Nuclear contribution   :     13.999938031      -0.275992413      -3.072490769
                        -----------------------------------------
Total Dipole Moment    :      0.548362624      -0.534810220      -1.005914849
                        -----------------------------------------
Magnitude (a.u.)       :      1.264352887
Magnitude (Debye)      :      3.213729639

Rotational constants in cm-1:             0.022829             0.004134             0.004038
Rotational constants in MHz :           684.406755           123.942234           121.052785

                             ****ORCA TERMINATED NORMALLY****
TOTAL RUN TIME: 0 days 1 hours 6 minutes 46 seconds 695 msec
