                         Program Version 6.0.1  -  RELEASE   -
|  1> !B3LYP def2-TZVP freq d3 TightSCF SlowConv defgrid2
|  2>
|  3> %pal
|  4> nprocs 20
|  5> end
|  6>
|  7> %scf
|  8> MaxIter 1500
|  9> end
| 10>
| 11> %maxcore 8000
| 12>
| 13> !CPCM
| 14> %cpcm smd true
| 15> SMDsolvent "ACETONITRILE"
| 16> end
| 17>
| 18> * xyz 0 2
| 19> 6        4.750173000     -0.142199000     -0.282166000
| 20> 8        5.660645000     -1.098881000     -0.068133000
| 21> 8        4.994945000      1.029650000     -0.473682000
| 22> 6        3.392570000     -0.666116000     -0.268551000
| 23> 6        2.173233000      0.178800000     -0.517064000
| 24> 6        0.839320000     -0.538051000     -0.120284000
| 25> 6       -0.408858000      0.414750000     -0.083306000
| 26> 6       -1.773366000     -0.362067000     -0.115432000
| 27> 6       -2.984950000      0.502631000      0.375363000
| 28> 6       -4.381723000     -0.064385000     -0.038637000
| 29> 9        3.205608000     -1.968927000     -0.178326000
| 30> 9        2.249367000      1.335543000      0.184124000
| 31> 9        2.103543000      0.509267000     -1.838853000
| 32> 9        0.605985000     -1.532876000     -1.000847000
| 33> 9        0.990375000     -1.068448000      1.110792000
| 34> 9       -0.353283000      1.148405000      1.045761000
| 35> 9       -0.374597000      1.247471000     -1.140565000
| 36> 9       -1.688455000     -1.449935000      0.675634000
| 37> 9       -2.005558000     -0.766881000     -1.379265000
| 38> 9       -2.885659000      1.750177000     -0.125218000
| 39> 9       -2.952566000      0.567950000      1.719074000
| 40> 9       -4.474365000     -1.358033000      0.278230000
| 41> 9       -5.330010000      0.607846000      0.616685000
| 42> 9       -4.586504000      0.079417000     -1.347180000
| 43> 1        6.547596000     -0.691613000     -0.090281000
| 44> *
| 45>
| 46>                          ****END OF INPUT****

CARTESIAN COORDINATES (ANGSTROEM)
---------------------------------
  C      4.750173   -0.142199   -0.282166
  O      5.660645   -1.098881   -0.068133
  O      4.994945    1.029650   -0.473682
  C      3.392570   -0.666116   -0.268551
  C      2.173233    0.178800   -0.517064
  C      0.839320   -0.538051   -0.120284
  C     -0.408858    0.414750   -0.083306
  C     -1.773366   -0.362067   -0.115432
  C     -2.984950    0.502631    0.375363
  C     -4.381723   -0.064385   -0.038637
  F      3.205608   -1.968927   -0.178326
  F      2.249367    1.335543    0.184124
  F      2.103543    0.509267   -1.838853
  F      0.605985   -1.532876   -1.000847
  F      0.990375   -1.068448    1.110792
  F     -0.353283    1.148405    1.045761
  F     -0.374597    1.247471   -1.140565
  F     -1.688455   -1.449935    0.675634
  F     -2.005558   -0.766881   -1.379265
  F     -2.885659    1.750177   -0.125218
  F     -2.952566    0.567950    1.719074
  F     -4.474365   -1.358033    0.278230
  F     -5.330010    0.607846    0.616685
  F     -4.586504    0.079417   -1.347180
  H      6.547596   -0.691613   -0.090281

 Total Charge           Charge          ....    0
 Multiplicity           Mult            ....    2
 Number of Electrons    NEL             ....  191
 Basis Dimension        Dim             ....  750

ORBITAL ENERGIES
----------------
                 SPIN UP ORBITALS
  NO   OCC          E(Eh)            E(eV)
   0   1.0000     -24.755027      -673.6185
   1   1.0000     -24.746666      -673.3910
   2   1.0000     -24.746362      -673.3827
   3   1.0000     -24.746305      -673.3812
   4   1.0000     -24.745948      -673.3715
   5   1.0000     -24.745607      -673.3622
   6   1.0000     -24.745131      -673.3492
   7   1.0000     -24.745018      -673.3462
   8   1.0000     -24.744941      -673.3441
   9   1.0000     -24.744449      -673.3307
  10   1.0000     -24.744391      -673.3291
  11   1.0000     -24.743271      -673.2986
  12   1.0000     -24.734783      -673.0677
  13   1.0000     -24.731501      -672.9784
  14   1.0000     -19.192621      -522.2578
  15   1.0000     -19.142839      -520.9031
  16   1.0000     -10.463080      -284.7149
  17   1.0000     -10.411733      -283.3177
  18   1.0000     -10.411070      -283.2996
  19   1.0000     -10.409639      -283.2607
  20   1.0000     -10.407819      -283.2111
  21   1.0000     -10.403617      -283.0968
  22   1.0000     -10.335520      -281.2438
  23   1.0000     -10.326764      -281.0055
  24   1.0000      -1.355625       -36.8884
  25   1.0000      -1.335409       -36.3383
  26   1.0000      -1.320941       -35.9446
  27   1.0000      -1.310558       -35.6621
  28   1.0000      -1.310194       -35.6522
  29   1.0000      -1.300828       -35.3973
  30   1.0000      -1.295037       -35.2398
  31   1.0000      -1.269833       -34.5539
  32   1.0000      -1.264614       -34.4119
  33   1.0000      -1.262311       -34.3492
  34   1.0000      -1.258124       -34.2353
  35   1.0000      -1.253296       -34.1039
  36   1.0000      -1.252050       -34.0700
  37   1.0000      -1.241945       -33.7950
  38   1.0000      -1.132031       -30.8041
  39   1.0000      -1.047679       -28.5088
  40   1.0000      -0.853782       -23.2326
  41   1.0000      -0.841494       -22.8982
  42   1.0000      -0.816920       -22.2295
  43   1.0000      -0.781248       -21.2588
  44   1.0000      -0.741200       -20.1691
  45   1.0000      -0.705064       -19.1858
  46   1.0000      -0.686639       -18.6844
  47   1.0000      -0.659595       -17.9485
  48   1.0000      -0.653894       -17.7934
  49   1.0000      -0.648835       -17.6557
  50   1.0000      -0.640716       -17.4348
  51   1.0000      -0.634123       -17.2554
  52   1.0000      -0.631687       -17.1891
  53   1.0000      -0.626860       -17.0577
  54   1.0000      -0.616742       -16.7824
  55   1.0000      -0.611860       -16.6495
  56   1.0000      -0.606462       -16.5027
  57   1.0000      -0.602193       -16.3865
  58   1.0000      -0.593811       -16.1584
  59   1.0000      -0.589412       -16.0387
  60   1.0000      -0.583589       -15.8803
  61   1.0000      -0.562816       -15.3150
  62   1.0000      -0.541998       -14.7485
  63   1.0000      -0.522151       -14.2085
  64   1.0000      -0.518005       -14.0956
  65   1.0000      -0.516393       -14.0518
  66   1.0000      -0.511038       -13.9061
  67   1.0000      -0.506941       -13.7946
  68   1.0000      -0.503234       -13.6937
  69   1.0000      -0.500794       -13.6273
  70   1.0000      -0.498227       -13.5575
  71   1.0000      -0.491896       -13.3852
  72   1.0000      -0.488845       -13.3021
  73   1.0000      -0.485566       -13.2129
  74   1.0000      -0.483141       -13.1469
  75   1.0000      -0.477366       -12.9898
  76   1.0000      -0.476326       -12.9615
  77   1.0000      -0.470875       -12.8132
  78   1.0000      -0.465621       -12.6702
  79   1.0000      -0.460861       -12.5407
  80   1.0000      -0.457759       -12.4562
  81   1.0000      -0.455366       -12.3911
  82   1.0000      -0.452996       -12.3267
  83   1.0000      -0.449046       -12.2192
  84   1.0000      -0.447780       -12.1847
  85   1.0000      -0.444734       -12.1018
  86   1.0000      -0.443571       -12.0702
  87   1.0000      -0.441921       -12.0253
  88   1.0000      -0.438774       -11.9396
  89   1.0000      -0.430678       -11.7193
  90   1.0000      -0.421110       -11.4590
  91   1.0000      -0.390645       -10.6300
  92   1.0000      -0.356911        -9.7121
  93   1.0000      -0.353938        -9.6311
  94   1.0000      -0.315490        -8.5849
  95   1.0000      -0.272805        -7.4234
  96   0.0000      -0.015991        -0.4351
  97   0.0000      -0.005091        -0.1385
  98   0.0000       0.009532         0.2594
  99   0.0000       0.034461         0.9377
 100   0.0000       0.046468         1.2645

                 SPIN DOWN ORBITALS
  NO   OCC          E(Eh)            E(eV)
   0   1.0000     -24.750609      -673.4983
   1   1.0000     -24.746666      -673.3910
   2   1.0000     -24.746361      -673.3827
   3   1.0000     -24.746305      -673.3812
   4   1.0000     -24.745948      -673.3715
   5   1.0000     -24.745607      -673.3622
   6   1.0000     -24.745131      -673.3492
   7   1.0000     -24.745015      -673.3461
   8   1.0000     -24.744941      -673.3441
   9   1.0000     -24.744408      -673.3296
  10   1.0000     -24.744391      -673.3291
  11   1.0000     -24.743218      -673.2972
  12   1.0000     -24.734220      -673.0523
  13   1.0000     -24.730127      -672.9410
  14   1.0000     -19.192217      -522.2468
  15   1.0000     -19.138518      -520.7856
  16   1.0000     -10.463080      -284.7149
  17   1.0000     -10.411734      -283.3177
  18   1.0000     -10.411077      -283.2998
  19   1.0000     -10.409639      -283.2607
  20   1.0000     -10.407787      -283.2103
  21   1.0000     -10.404243      -283.1139
  22   1.0000     -10.336662      -281.2749
  23   1.0000     -10.313854      -280.6542
  24   1.0000      -1.355625       -36.8884
  25   1.0000      -1.335275       -36.3347
  26   1.0000      -1.320496       -35.9325
  27   1.0000      -1.310417       -35.6583
  28   1.0000      -1.309925       -35.6449
  29   1.0000      -1.298907       -35.3450
  30   1.0000      -1.286342       -35.0031
  31   1.0000      -1.269820       -34.5535
  32   1.0000      -1.264551       -34.4102
  33   1.0000      -1.262309       -34.3492
  34   1.0000      -1.258018       -34.2324
  35   1.0000      -1.253244       -34.1025
  36   1.0000      -1.252015       -34.0691
  37   1.0000      -1.239761       -33.7356
  38   1.0000      -1.129422       -30.7331
  39   1.0000      -1.041874       -28.3508
  40   1.0000      -0.852195       -23.1894
  41   1.0000      -0.835606       -22.7380
  42   1.0000      -0.809735       -22.0340
  43   1.0000      -0.774595       -21.0778
  44   1.0000      -0.737943       -20.0805
  45   1.0000      -0.704081       -19.1590
  46   1.0000      -0.686285       -18.6748
  47   1.0000      -0.657410       -17.8890
  48   1.0000      -0.653543       -17.7838
  49   1.0000      -0.647555       -17.6209
  50   1.0000      -0.640654       -17.4331
  51   1.0000      -0.633611       -17.2414
  52   1.0000      -0.630874       -17.1670
  53   1.0000      -0.625946       -17.0329
  54   1.0000      -0.615744       -16.7552
  55   1.0000      -0.611041       -16.6273
  56   1.0000      -0.605763       -16.4837
  57   1.0000      -0.600443       -16.3389
  58   1.0000      -0.591177       -16.0867
  59   1.0000      -0.587242       -15.9797
  60   1.0000      -0.581811       -15.8319
  61   1.0000      -0.559576       -15.2268
  62   1.0000      -0.521598       -14.1934
  63   1.0000      -0.517860       -14.0917
  64   1.0000      -0.514875       -14.0105
  65   1.0000      -0.514099       -13.9893
  66   1.0000      -0.509525       -13.8649
  67   1.0000      -0.505703       -13.7609
  68   1.0000      -0.502955       -13.6861
  69   1.0000      -0.500541       -13.6204
  70   1.0000      -0.496762       -13.5176
  71   1.0000      -0.491565       -13.3762
  72   1.0000      -0.488297       -13.2872
  73   1.0000      -0.484425       -13.1819
  74   1.0000      -0.481866       -13.1123
  75   1.0000      -0.476137       -12.9563
  76   1.0000      -0.473770       -12.8919
  77   1.0000      -0.465618       -12.6701
  78   1.0000      -0.462909       -12.5964
  79   1.0000      -0.458558       -12.4780
  80   1.0000      -0.457179       -12.4405
  81   1.0000      -0.455284       -12.3889
  82   1.0000      -0.452853       -12.3227
  83   1.0000      -0.448629       -12.2078
  84   1.0000      -0.447677       -12.1819
  85   1.0000      -0.443671       -12.0729
  86   1.0000      -0.441615       -12.0170
  87   1.0000      -0.440706       -11.9922
  88   1.0000      -0.437592       -11.9075
  89   1.0000      -0.428030       -11.6473
  90   1.0000      -0.419600       -11.4179
  91   1.0000      -0.389292       -10.5932
  92   1.0000      -0.353037        -9.6066
  93   1.0000      -0.341520        -9.2932
  94   1.0000      -0.310354        -8.4452
  95   0.0000      -0.143744        -3.9115
  96   0.0000      -0.015121        -0.4115
  97   0.0000       0.001044         0.0284
  98   0.0000       0.019022         0.5176
  99   0.0000       0.036484         0.9928

MULLIKEN ATOMIC CHARGES AND SPIN POPULATIONS
--------------------------------------------
   0 C :    0.260146   -0.043354
   1 O :   -0.377379    0.016414
   2 O :   -0.322146    0.158196
   3 C :    0.192639    0.756392
   4 C :    0.377202   -0.003965
   5 C :    0.337078   -0.005992
   6 C :    0.335910    0.000226
   7 C :    0.312343   -0.000081
   8 C :    0.324279    0.000008
   9 C :    0.475979   -0.000003
  10 F :   -0.141032    0.086962
  11 F :   -0.172345    0.009867
  12 F :   -0.180970    0.025613
  13 F :   -0.171078    0.000855
  14 F :   -0.170373    0.000863
  15 F :   -0.166824    0.000005
  16 F :   -0.165674   -0.000015
  17 F :   -0.167285    0.000006
  18 F :   -0.166636    0.000002
  19 F :   -0.165101   -0.000002
  20 F :   -0.162268    0.000001
  21 F :   -0.154914   -0.000000
  22 F :   -0.151962   -0.000001
  23 F :   -0.152276   -0.000000
  24 H :    0.372688   -0.001997
Sum of atomic charges         :   -0.0000000

LOEWDIN ATOMIC CHARGES AND SPIN POPULATIONS
-------------------------------------------
   0 C :   -0.516292    0.057341
   1 O :    0.126559    0.013647
   2 O :    0.104951    0.135457
   3 C :   -0.149095    0.590669
   4 C :   -0.457180    0.049725
   5 C :   -0.448506    0.000531
   6 C :   -0.455167   -0.000115
   7 C :   -0.456542   -0.000024
   8 C :   -0.462715   -0.000006
   9 C :   -0.664258   -0.000002
  10 F :    0.266577    0.109476
  11 F :    0.214716    0.012479
  12 F :    0.194803    0.029268
  13 F :    0.223048    0.001049
  14 F :    0.223370    0.001143
  15 F :    0.225048    0.000014
  16 F :    0.226823    0.000068
  17 F :    0.225592    0.000011
  18 F :    0.225761    0.000010
  19 F :    0.224074    0.000002
  20 F :    0.224850    0.000001
  21 F :    0.225392    0.000000
  22 F :    0.226287   -0.000001
  23 F :    0.227538    0.000000
  24 H :    0.224368   -0.000741

  Mayer bond orders larger than 0.100000
B(  0-C ,  1-O ) :   1.2825 B(  0-C ,  2-O ) :   1.9851 B(  0-C ,  3-C ) :   1.1160
B(  1-O , 24-H ) :   0.8306 B(  3-C ,  4-C ) :   1.0134 B(  3-C , 10-F ) :   1.1118
B(  4-C ,  5-C ) :   0.9433 B(  4-C , 11-F ) :   1.0620 B(  4-C , 12-F ) :   1.0595
B(  5-C ,  6-C ) :   0.9459 B(  5-C , 13-F ) :   1.0669 B(  5-C , 14-F ) :   1.0799
B(  6-C ,  7-C ) :   0.9321 B(  6-C , 15-F ) :   1.0870 B(  6-C , 16-F ) :   1.0874
B(  7-C ,  8-C ) :   0.9256 B(  7-C , 17-F ) :   1.0828 B(  7-C , 18-F ) :   1.0876
B(  8-C ,  9-C ) :   0.9695 B(  8-C , 19-F ) :   1.0875 B(  8-C , 20-F ) :   1.0980
B(  9-C , 21-F ) :   1.1431 B(  9-C , 22-F ) :   1.1490 B(  9-C , 23-F ) :   1.1559

Dispersion correction           -0.042967422
FINAL SINGLE POINT ENERGY     -1853.743261547328

DIPOLE MOMENT
-------------

Method             : SCF
Type of density    : Electron Density
Multiplicity       :   2
Irrep              :   0
Energy             : -1853.7002941257408111 Eh
Relativity type    :
Basis              : AO
                                X                 Y                 Z
Electronic contribution:    -16.796081004      -0.115205288       0.440287912
Nuclear contribution   :     17.679756506      -0.637622957      -0.260066689
                        -----------------------------------------
Total Dipole Moment    :      0.883675503      -0.752828245       0.180221223
                        -----------------------------------------
Magnitude (a.u.)       :      1.174781873
Magnitude (Debye)      :      2.986058216

VIBRATIONAL FREQUENCIES
-----------------------

Scaling factor for frequencies =  1.000000000  (already applied!)

     0:       0.00 cm**-1
     1:       0.00 cm**-1
     2:       0.00 cm**-1
     3:       0.00 cm**-1
     4:       0.00 cm**-1
     5:       0.00 cm**-1
     6:      22.46 cm**-1
     7:      29.44 cm**-1
     8:      38.73 cm**-1
     9:      47.23 cm**-1
    10:      56.40 cm**-1
    11:      67.85 cm**-1
    12:      69.57 cm**-1
    13:      96.94 cm**-1
    14:     116.48 cm**-1
    15:     137.90 cm**-1
    16:     168.75 cm**-1
    17:     175.67 cm**-1
    18:     199.31 cm**-1
    19:     208.91 cm**-1
    20:     212.60 cm**-1
    21:     227.38 cm**-1
    22:     239.00 cm**-1
    23:     253.22 cm**-1
    24:     258.40 cm**-1
    25:     287.20 cm**-1
    26:     303.07 cm**-1
    27:     315.92 cm**-1
    28:     324.72 cm**-1
    29:     337.08 cm**-1
    30:     356.01 cm**-1
    31:     366.89 cm**-1
    32:     369.04 cm**-1
    33:     376.71 cm**-1
    34:     381.86 cm**-1
    35:     422.47 cm**-1
    36:     474.42 cm**-1
    37:     517.83 cm**-1
    38:     528.37 cm**-1
    39:     530.58 cm**-1
    40:     550.49 cm**-1
    41:     563.53 cm**-1
    42:     570.60 cm**-1
    43:     585.98 cm**-1
    44:     603.94 cm**-1
    45:     627.94 cm**-1
    46:     647.79 cm**-1
    47:     693.08 cm**-1
    48:     701.64 cm**-1
    49:     721.46 cm**-1
    50:     722.65 cm**-1
    51:     756.14 cm**-1
    52:     867.21 cm**-1
    53:    1009.84 cm**-1
    54:    1059.53 cm**-1
    55:    1102.13 cm**-1
    56:    1116.36 cm**-1
    57:    1130.73 cm**-1
    58:    1140.20 cm**-1
    59:    1143.96 cm**-1
    60:    1150.23 cm**-1
    61:    1155.13 cm**-1
    62:    1161.55 cm**-1
    63:    1171.06 cm**-1
    64:    1186.69 cm**-1
    65:    1187.43 cm**-1
    66:    1220.20 cm**-1
    67:    1243.77 cm**-1
    68:    1274.96 cm**-1
    69:    1288.52 cm**-1
    70:    1333.40 cm**-1
    71:    1355.27 cm**-1
    72:    1447.45 cm**-1
    73:    1713.34 cm**-1
    74:    3639.64 cm**-1

IR SPECTRUM
-----------

 Mode   freq       eps      Int      T**2         TX        TY        TZ
       cm**-1   L/(mol*cm) km/mol    a.u.
----------------------------------------------------------------------------
  6:     22.46   0.000005    0.03  0.000070  ( 0.004433 -0.004398 -0.005532)
  7:     29.44   0.000121    0.61  0.001281  (-0.002715 -0.015767 -0.032010)
  8:     38.73   0.000028    0.14  0.000228  ( 0.008439  0.008832 -0.008863)
  9:     47.23   0.000059    0.30  0.000390  ( 0.008950 -0.001114  0.017564)
 10:     56.40   0.000065    0.33  0.000359  (-0.003721  0.006642  0.017363)
 11:     67.85   0.000033    0.17  0.000153  ( 0.004158  0.001708  0.011532)
 12:     69.57   0.000150    0.76  0.000671  (-0.005384  0.002881  0.025167)
 13:     96.94   0.000022    0.11  0.000071  (-0.003274  0.005339 -0.005651)
 14:    116.48   0.000171    0.86  0.000458  ( 0.013867  0.015352  0.005495)
 15:    137.90   0.000027    0.14  0.000062  ( 0.000224  0.005185  0.005926)
 16:    168.75   0.000225    1.14  0.000417  ( 0.005974 -0.001358 -0.019479)
 17:    175.67   0.001355    6.85  0.002407  (-0.009908 -0.009723 -0.047051)
 18:    199.31   0.001949    9.85  0.003052  ( 0.002660 -0.022427  0.050413)
 19:    208.91   0.000092    0.46  0.000137  (-0.001913  0.001097 -0.011508)
 20:    212.60   0.000045    0.23  0.000066  (-0.007689 -0.002280  0.001206)
 21:    227.38   0.000244    1.23  0.000334  (-0.002350 -0.017261 -0.005544)
 22:    239.00   0.000046    0.23  0.000060  ( 0.004036  0.004180  0.005082)
 23:    253.22   0.000049    0.25  0.000061  (-0.005632  0.002002  0.005001)
 24:    258.40   0.000073    0.37  0.000088  ( 0.002225 -0.001429 -0.008981)
 25:    287.20   0.001395    7.05  0.001516  ( 0.036361 -0.011798 -0.007405)
 26:    303.07   0.000079    0.40  0.000081  (-0.004826 -0.004580  0.006065)
 27:    315.92   0.000124    0.63  0.000123  ( 0.007369 -0.007951 -0.002249)
 28:    324.72   0.002573   13.00  0.002473  (-0.046927 -0.016451 -0.000018)
 29:    337.08   0.000132    0.67  0.000122  ( 0.010112  0.004450  0.000133)
 30:    356.01   0.000144    0.73  0.000126  (-0.006946 -0.003248  0.008191)
 31:    366.89   0.000482    2.44  0.000410  ( 0.004108  0.006647 -0.018686)
 32:    369.04   0.000068    0.34  0.000057  (-0.006595  0.002755 -0.002525)
 33:    376.71   0.000054    0.27  0.000044  (-0.005639  0.002847 -0.002118)
 34:    381.86   0.000104    0.53  0.000085  ( 0.005618  0.001018 -0.007244)
 35:    422.47   0.000275    1.39  0.000203  ( 0.000781  0.007532  0.012084)
 36:    474.42   0.001517    7.67  0.000998  (-0.005895  0.004495 -0.030706)
 37:    517.83   0.011898   60.13  0.007170  ( 0.083437 -0.010535 -0.009852)
 38:    528.37   0.004244   21.45  0.002507  (-0.011031  0.039091  0.029271)
 39:    530.58   0.009615   48.59  0.005655  (-0.037514  0.003538  0.065081)
 40:    550.49   0.014499   73.27  0.008219  ( 0.033095 -0.020554 -0.081862)
 41:    563.53   0.004202   21.23  0.002327  ( 0.005666  0.046900  0.009753)
 42:    570.60   0.024051  121.54  0.013154  ( 0.099237 -0.008218  0.056904)
 43:    585.98   0.009138   46.18  0.004867  ( 0.068054 -0.014618  0.004647)
 44:    603.94   0.000174    0.88  0.000090  ( 0.009438  0.000131  0.000894)
 45:    627.94   0.021898  110.66  0.010882  (-0.100559  0.027185  0.005577)
 46:    647.79   0.027623  139.60  0.013307  ( 0.115317 -0.002430  0.001745)
 47:    693.08   0.001472    7.44  0.000663  ( 0.022197 -0.011173  0.006722)
 48:    701.64   0.012995   65.67  0.005780  ( 0.075834 -0.002318 -0.004854)
 49:    721.46   0.010478   52.95  0.004532  (-0.020102  0.009394  0.063560)
 50:    722.65   0.000117    0.59  0.000051  (-0.001268 -0.000544  0.006984)
 51:    756.14   0.000912    4.61  0.000376  ( 0.002456 -0.011020 -0.015776)
 52:    867.21   0.001508    7.62  0.000543  (-0.020150 -0.010160  0.005774)
 53:   1009.84   0.024341  123.01  0.007522  (-0.076213  0.029221 -0.029318)
 54:   1059.53   0.047589  240.50  0.014016  ( 0.001229  0.013072 -0.117661)
 55:   1102.13   0.013597   68.71  0.003850  (-0.001425 -0.053731 -0.030996)
 56:   1116.36   0.013963   70.56  0.003903  (-0.032860  0.048061 -0.022663)
 57:   1130.73   0.104528  528.24  0.028848  ( 0.013459  0.165740  0.034601)
 58:   1140.20   0.023497  118.75  0.006431  ( 0.070273  0.026311  0.028292)
 59:   1143.96   0.055920  282.60  0.015255  ( 0.003175  0.117398  0.038238)
 60:   1150.23   0.029909  151.15  0.008115  (-0.002319 -0.013296  0.089064)
 61:   1155.13   0.137615  695.45  0.037177  ( 0.031728 -0.017161  0.189410)
 62:   1161.55   0.059884  302.63  0.016089  ( 0.034540 -0.116501  0.036372)
 63:   1171.06   0.058753  296.91  0.015657  ( 0.021212  0.014063 -0.122510)
 64:   1186.69   0.046188  233.42  0.012146  (-0.073348  0.013061  0.081213)
 65:   1187.43   0.050186  253.62  0.013189  ( 0.043600 -0.079629  0.070338)
 66:   1220.20   0.014457   73.06  0.003697  (-0.004245 -0.053008 -0.029486)
 67:   1243.77   0.009112   46.05  0.002286  (-0.015150 -0.035455  0.028276)
 68:   1274.96   0.005562   28.11  0.001361  ( 0.022189  0.029420  0.001845)
 69:   1288.52   0.014201   71.77  0.003439  ( 0.045368 -0.037164 -0.000051)
 70:   1333.40   0.005120   25.87  0.001198  (-0.009516  0.033247 -0.001535)
 71:   1355.27   0.031822  160.82  0.007327  (-0.080808 -0.028088 -0.002908)
 72:   1447.45   0.042919  216.90  0.009253  ( 0.064021 -0.071071  0.010170)
 73:   1713.34   0.068787  347.62  0.012529  ( 0.012163  0.109359 -0.020527)
 74:   3639.64   0.055061  278.25  0.004721  ( 0.068528  0.004049  0.002903)

--------------------------
THERMOCHEMISTRY AT 298.15K
--------------------------

Temperature         ...   298.15 K
Pressure            ...     1.00 atm
Total Mass          ...   395.07 AMU
Quasi RRHO          ...     True
Cut-Off Frequency   ...     1.00 cm^-1

Throughout the following assumptions are being made:
  (1) The electronic state is orbitally nondegenerate
      but the spin degeneracy is treated
  (2) There are no thermally accessible electronically excited states
  (3) Hindered rotations indicated by low frequency modes are not
      treated as such but are treated as vibrations and this may
      cause some error
  (4) All equations used are the standard statistical mechanics
      equations for an ideal gas
  (5) All vibrations are strictly harmonic

freq.      22.46  E(vib)   ...       0.56
freq.      29.44  E(vib)   ...       0.55
freq.      38.73  E(vib)   ...       0.54
freq.      47.23  E(vib)   ...       0.53
freq.      56.40  E(vib)   ...       0.52
freq.      67.85  E(vib)   ...       0.50
freq.      69.57  E(vib)   ...       0.50
freq.      96.94  E(vib)   ...       0.46
freq.     116.48  E(vib)   ...       0.44
freq.     137.90  E(vib)   ...       0.42
freq.     168.75  E(vib)   ...       0.38
freq.     175.67  E(vib)   ...       0.38
freq.     199.31  E(vib)   ...       0.35
freq.     208.91  E(vib)   ...       0.34
freq.     212.60  E(vib)   ...       0.34
freq.     227.38  E(vib)   ...       0.33
freq.     239.00  E(vib)   ...       0.32
freq.     253.22  E(vib)   ...       0.30
freq.     258.40  E(vib)   ...       0.30
freq.     287.20  E(vib)   ...       0.27
freq.     303.07  E(vib)   ...       0.26
freq.     315.92  E(vib)   ...       0.25
freq.     324.72  E(vib)   ...       0.24
freq.     337.08  E(vib)   ...       0.24
freq.     356.01  E(vib)   ...       0.22
freq.     366.89  E(vib)   ...       0.22
freq.     369.04  E(vib)   ...       0.21
freq.     376.71  E(vib)   ...       0.21
freq.     381.86  E(vib)   ...       0.21
freq.     422.47  E(vib)   ...       0.18
freq.     474.42  E(vib)   ...       0.15
freq.     517.83  E(vib)   ...       0.13
freq.     528.37  E(vib)   ...       0.13
freq.     530.58  E(vib)   ...       0.13
freq.     550.49  E(vib)   ...       0.12
freq.     563.53  E(vib)   ...       0.11
freq.     570.60  E(vib)   ...       0.11
freq.     585.98  E(vib)   ...       0.11
freq.     603.94  E(vib)   ...       0.10
freq.     627.94  E(vib)   ...       0.09
freq.     647.79  E(vib)   ...       0.09
freq.     693.08  E(vib)   ...       0.07
freq.     701.64  E(vib)   ...       0.07
freq.     721.46  E(vib)   ...       0.07
freq.     722.65  E(vib)   ...       0.07
freq.     756.14  E(vib)   ...       0.06
freq.     867.21  E(vib)   ...       0.04
freq.    1009.84  E(vib)   ...       0.02
freq.    1059.53  E(vib)   ...       0.02
freq.    1102.13  E(vib)   ...       0.02
freq.    1116.36  E(vib)   ...       0.01
freq.    1130.73  E(vib)   ...       0.01
freq.    1140.20  E(vib)   ...       0.01
freq.    1143.96  E(vib)   ...       0.01
freq.    1150.23  E(vib)   ...       0.01
freq.    1155.13  E(vib)   ...       0.01
freq.    1161.55  E(vib)   ...       0.01
freq.    1171.06  E(vib)   ...       0.01
freq.    1186.69  E(vib)   ...       0.01
freq.    1187.43  E(vib)   ...       0.01
freq.    1220.20  E(vib)   ...       0.01
freq.    1243.77  E(vib)   ...       0.01
freq.    1274.96  E(vib)   ...       0.01
freq.    1288.52  E(vib)   ...       0.01
freq.    1333.40  E(vib)   ...       0.01
freq.    1355.27  E(vib)   ...       0.01
freq.    1447.45  E(vib)   ...       0.00
freq.    1713.34  E(vib)   ...       0.00
freq.    3639.64  E(vib)   ...       0.00

------------
INNER ENERGY
------------

The inner energy is: U= E(el) + E(ZPE) + E(vib) + E(rot) + E(trans)
    E(el)   - is the total energy from the electronic structure calculation
              = E(kin-el) + E(nuc-el) + E(el-el) + E(nuc-nuc)
    E(ZPE)  - the the zero temperature vibrational energy from the frequency calculation
    E(vib)  - the the finite temperature correction to E(ZPE) due to population
              of excited vibrational states
    E(rot)  - is the rotational thermal energy
    E(trans)- is the translational thermal energy

Summary of contributions to the inner energy U:
Electronic energy                ...  -1853.74326155 Eh
Zero point energy                ...      0.10562100 Eh      66.28 kcal/mol
Thermal vibrational correction   ...      0.01981639 Eh      12.43 kcal/mol
Thermal rotational correction    ...      0.00141627 Eh       0.89 kcal/mol
Thermal translational correction ...      0.00141627 Eh       0.89 kcal/mol
-----------------------------------------------------------------------
Total thermal energy                  -1853.61499161 Eh

Summary of corrections to the electronic energy:
(perhaps to be used in another calculation)
Total thermal correction                  0.02264893 Eh      14.21 kcal/mol
Non-thermal (ZPE) correction              0.10562100 Eh      66.28 kcal/mol
-----------------------------------------------------------------------
Total correction                          0.12826994 Eh      80.49 kcal/mol

--------
ENTHALPY
--------

The enthalpy is H = U + kB*T
                kB is Boltzmann's constant
Total thermal energy              ...  -1853.61499161 Eh
Thermal Enthalpy correction       ...      0.00094421 Eh       0.59 kcal/mol
-----------------------------------------------------------------------
Total Enthalpy                    ...  -1853.61404740 Eh

Note: Only C1 symmetry has been detected, increase convergence thresholds
      if your molecule has a higher symmetry. Symmetry factor of 1.0 is
      used for the rotational entropy correction.

Note: Rotational entropy computed according to Herzberg
Infrared and Raman Spectra, Chapter V,1, Van Nostrand Reinhold, 1945
Point Group:  C1, Symmetry Number:   1
Rotational constants in cm-1:     0.023237     0.003944     0.003817

Vibrational entropy computed according to the QRRHO of S. Grimme
Chem.Eur.J. 2012 18 9955 using a reference frequency of 100.0 cm-1

-------
ENTROPY
-------

The entropy contributions are T*S = T*(S(el)+S(vib)+S(rot)+S(trans))
     S(el)   - electronic entropy
     S(vib)  - vibrational entropy
     S(rot)  - rotational entropy
     S(trans)- translational entropy
The entropies will be listed as multiplied by the temperature to get
units of energy

Electronic entropy                ...      0.00065446 Eh      0.41 kcal/mol
Vibrational entropy               ...      0.03548738 Eh     22.27 kcal/mol

                             ****ORCA TERMINATED NORMALLY****
TOTAL RUN TIME: 0 days 0 hours 20 minutes 2 seconds 204 msec
