                         Program Version 6.0.1  -  RELEASE   -
|  1> !TPSSh def2-TZVP opt d3 TightSCF SlowConv defgrid2
|  2>
|  3> %pal
|  4> nprocs 20
|  5> end
|  6>
|  7> %scf
|  8> MaxIter 1500
|  9> end
| 10>
| 11> %maxcore 8000
| 12>
| 13> !CPCM
| 14> %cpcm smd true
| 15> SMDsolvent "ACETONITRILE"
| 16> end
| 17>
| 18> * xyz -2 2
| 19> 6        6.857280945     27.901753127      3.100719684
| 20> 6        6.154044945     26.704598127      2.411135684
| 21> 6        7.086539945     25.482838127      2.185613684
| 22> 6        6.299616945     24.171731127      1.900070684
| 23> 6        7.185881945     23.070259127      1.248991684
| 24> 6        6.565390945     21.647303127      1.360366684
| 25> 6        7.185681945     20.616666127      0.394672684
| 26> 6        6.843394945     19.121603127      0.784430684
| 27> 9        8.006806945     28.182557127      2.503585684
| 28> 9        7.082780945     27.647576127      4.378925684
| 29> 9        6.067588945     28.966668127      3.018348684
| 30> 9        5.116418945     26.361022127      3.182510684
| 31> 9        5.702795945     27.135986127      1.230360684
| 32> 9        7.887905945     25.777720127      1.156931684
| 33> 9        7.829891945     25.318192127      3.287321684
| 34> 9        5.806494945     23.745652127      3.066652684
| 35> 9        5.287431945     24.474179127      1.076603684
| 36> 9        7.350609945     23.413929127     -0.034316316
| 37> 9        8.377622945     23.098911127      1.865134684
| 38> 9        6.756126945     21.255165127      2.631170684
| 39> 9        5.250981945     21.784657127      1.133608684
| 40> 9        6.706596945     20.903759127     -0.845345316
| 41> 9        8.519170945     20.869305127      0.364163684
| 42> 8        7.813741945     18.363469127      0.789215684
| 43> 8        5.634555945     18.967368127      0.997888684
| 44> 8        2.818390092     18.736599843      1.412612662
| 45> 1        2.716934106     17.791620290      1.243555674
| 46> 1        3.748070901     18.906228277      1.215686974
| 47> *
| 48>
| 49>                          ****END OF INPUT****
 Total Charge           Charge          ....   -2
 Multiplicity           Mult            ....    2
 Number of Electrons    NEL             ....  211
Dispersion correction           -0.032608819
FINAL SINGLE POINT ENERGY     -2030.361314598462
Dispersion correction             ... done (  0.0 sec)
Dispersion correction           -0.031728236
FINAL SINGLE POINT ENERGY     -2030.392061787202
Dispersion correction             ... done (  0.0 sec)
Dispersion correction           -0.031241001
FINAL SINGLE POINT ENERGY     -2030.403693236967
Dispersion correction             ... done (  0.0 sec)
FINAL SINGLE POINT ENERGY     -2030.407008759421
FINAL SINGLE POINT ENERGY     -2030.408476992734
FINAL SINGLE POINT ENERGY     -2030.409502021704
FINAL SINGLE POINT ENERGY     -2030.409764975314
FINAL SINGLE POINT ENERGY     -2030.410007856904
FINAL SINGLE POINT ENERGY     -2030.410097038862
FINAL SINGLE POINT ENERGY     -2030.410311702104
FINAL SINGLE POINT ENERGY     -2030.411908039407
FINAL SINGLE POINT ENERGY     -2030.411909760693
FINAL SINGLE POINT ENERGY     -2030.411924176556
FINAL SINGLE POINT ENERGY     -2030.411928225467
FINAL SINGLE POINT ENERGY     -2030.411931426250
FINAL SINGLE POINT ENERGY     -2030.411932439529
FINAL SINGLE POINT ENERGY     -2030.411933537858
Dispersion correction             ... done (  0.0 sec)
Dispersion correction           -0.031595058
FINAL SINGLE POINT ENERGY     -2030.411934765592
Dispersion correction             ... done (  0.0 sec)
Dispersion correction           -0.031595766
FINAL SINGLE POINT ENERGY     -2030.411935319745
Dispersion correction             ... done (  0.0 sec)
                    ***********************HURRAY********************

CARTESIAN COORDINATES (ANGSTROEM)
---------------------------------
  C      6.846104   28.317698    2.667395
  C      6.293255   26.879872    2.808606
  C      6.914406   25.623981    2.111091
  C      6.432722   24.117409    2.166391
  C      7.058936   22.862485    1.466835
  C      6.532725   21.406706    1.684543
  C      7.028640   20.255353    0.759074
  C      6.712072   18.818524    1.304835
  F      6.818023   28.717872    1.384189
  F      8.115715   28.388619    3.105151
  F      6.139437   29.247201    3.378939
  F      6.307671   26.628283    4.163873
  F      4.983883   26.962517    2.386097
  F      6.901761   25.943884    0.754399
  F      8.230224   25.595227    2.560451
  F      6.444653   23.803459    3.524614
  F      5.117428   24.159560    1.724194
  F      6.986309   23.104550    0.111994
  F      8.386885   22.845947    1.833398
  F      6.839534   21.058698    2.972764
  F      5.167580   21.440783    1.583917
  F      6.460840   20.443379   -0.476966
  F      8.381166   20.419450    0.583177
  O      7.634728   18.264725    1.921182
  O      5.545319   18.414707    1.075742
  O      3.431456   19.007326   -0.549779
  H      2.704332   18.810685    0.055103
  H      4.242951   18.878418   -0.000589

 Multiplicity           Mult            ....    2
 Number of Electrons    NEL             ....  211
 Basis Dimension        Dim             ....  818

ORBITAL ENERGIES
----------------
                 SPIN UP ORBITALS
  NO   OCC          E(Eh)            E(eV)
   0   1.0000     -24.635751      -670.3729
   1   1.0000     -24.635666      -670.3706
   2   1.0000     -24.627407      -670.1458
   3   1.0000     -24.616767      -669.8563
   4   1.0000     -24.616724      -669.8551
   5   1.0000     -24.615133      -669.8118
   6   1.0000     -24.613017      -669.7542
   7   1.0000     -24.610087      -669.6745
   8   1.0000     -24.608610      -669.6343
   9   1.0000     -24.602696      -669.4734
  10   1.0000     -24.602077      -669.4565
  11   1.0000     -24.601860      -669.4506
  12   1.0000     -24.600786      -669.4214
  13   1.0000     -24.600491      -669.4134
  14   1.0000     -24.599722      -669.3925
  15   1.0000     -19.007407      -517.2179
  16   1.0000     -18.990187      -516.7493
  17   1.0000     -18.985475      -516.6210
  18   1.0000     -10.360707      -281.9292
  19   1.0000     -10.291532      -280.0468
  20   1.0000     -10.287399      -279.9343
  21   1.0000     -10.282789      -279.8089
  22   1.0000     -10.275478      -279.6100
  23   1.0000     -10.272766      -279.5362
  24   1.0000     -10.267074      -279.3813
  25   1.0000     -10.187843      -277.2253
  26   1.0000      -1.287872       -35.0448
  27   1.0000      -1.243404       -33.8348
  28   1.0000      -1.234621       -33.5958
  29   1.0000      -1.224432       -33.3185
  30   1.0000      -1.216710       -33.1084
  31   1.0000      -1.213531       -33.0219
  32   1.0000      -1.206823       -32.8393
  33   1.0000      -1.203490       -32.7486
  34   1.0000      -1.194956       -32.5164
  35   1.0000      -1.183074       -32.1931
  36   1.0000      -1.180904       -32.1340
  37   1.0000      -1.172062       -31.8934
  38   1.0000      -1.165171       -31.7059
  39   1.0000      -1.162023       -31.6203
  40   1.0000      -1.157962       -31.5098
  41   1.0000      -0.996089       -27.1049
  42   1.0000      -0.941815       -25.6281
  43   1.0000      -0.912157       -24.8211
  44   1.0000      -0.766797       -20.8656
  45   1.0000      -0.760931       -20.7060
  46   1.0000      -0.731443       -19.9036
  47   1.0000      -0.700578       -19.0637
  48   1.0000      -0.662089       -18.0164
  49   1.0000      -0.630409       -17.1543
  50   1.0000      -0.605968       -16.4892
  51   1.0000      -0.577188       -15.7061
  52   1.0000      -0.575360       -15.6563
  53   1.0000      -0.574078       -15.6215
  54   1.0000      -0.562630       -15.3099
  55   1.0000      -0.555930       -15.1276
  56   1.0000      -0.552557       -15.0358
  57   1.0000      -0.541452       -14.7336
  58   1.0000      -0.538479       -14.6527
  59   1.0000      -0.529305       -14.4031
  60   1.0000      -0.528287       -14.3754
  61   1.0000      -0.523146       -14.2355
  62   1.0000      -0.514185       -13.9917
  63   1.0000      -0.508632       -13.8406
  64   1.0000      -0.504126       -13.7180
  65   1.0000      -0.495083       -13.4719
  66   1.0000      -0.474634       -12.9154
  67   1.0000      -0.447927       -12.1887
  68   1.0000      -0.447732       -12.1834
  69   1.0000      -0.442189       -12.0326
  70   1.0000      -0.432650       -11.7730
  71   1.0000      -0.428875       -11.6703
  72   1.0000      -0.426995       -11.6191
  73   1.0000      -0.423244       -11.5171
  74   1.0000      -0.420391       -11.4394
  75   1.0000      -0.417401       -11.3581
  76   1.0000      -0.416773       -11.3410
  77   1.0000      -0.414406       -11.2766
  78   1.0000      -0.410803       -11.1785
  79   1.0000      -0.407943       -11.1007
  80   1.0000      -0.402208       -10.9446
  81   1.0000      -0.400511       -10.8985
  82   1.0000      -0.395066       -10.7503
  83   1.0000      -0.390161       -10.6168
  84   1.0000      -0.389688       -10.6039
  85   1.0000      -0.388904       -10.5826
  86   1.0000      -0.385328       -10.4853
  87   1.0000      -0.379271       -10.3205
  88   1.0000      -0.378321       -10.2946
  89   1.0000      -0.375930       -10.2296
  90   1.0000      -0.373582       -10.1657
  91   1.0000      -0.372815       -10.1448
  92   1.0000      -0.367628       -10.0037
  93   1.0000      -0.367436        -9.9984
  94   1.0000      -0.363556        -9.8929
  95   1.0000      -0.360500        -9.8097
  96   1.0000      -0.353792        -9.6272
  97   1.0000      -0.344091        -9.3632
  98   1.0000      -0.326716        -8.8904
  99   1.0000      -0.321404        -8.7458
 100   1.0000      -0.291429        -7.9302
 101   1.0000      -0.254450        -6.9239
 102   1.0000      -0.232289        -6.3209
 103   1.0000      -0.220713        -6.0059
 104   1.0000      -0.213918        -5.8210
 105   1.0000      -0.070605        -1.9213
 106   0.0000       0.011610         0.3159
 107   0.0000       0.031871         0.8672
 108   0.0000       0.045979         1.2512
 109   0.0000       0.060042         1.6338
 110   0.0000       0.067519         1.8373

                 SPIN DOWN ORBITALS
  NO   OCC          E(Eh)            E(eV)
   0   1.0000     -24.635732      -670.3723
   1   1.0000     -24.635648      -670.3701
   2   1.0000     -24.626214      -670.1133
   3   1.0000     -24.616439      -669.8474
   4   1.0000     -24.616391      -669.8461
   5   1.0000     -24.615078      -669.8103
   6   1.0000     -24.612893      -669.7509
   7   1.0000     -24.609850      -669.6681
   8   1.0000     -24.608346      -669.6271
   9   1.0000     -24.602186      -669.4595
  10   1.0000     -24.602033      -669.4553
  11   1.0000     -24.601314      -669.4358
  12   1.0000     -24.600707      -669.4193
  13   1.0000     -24.600027      -669.4008
  14   1.0000     -24.599213      -669.3786
  15   1.0000     -19.007408      -517.2179
  16   1.0000     -18.989997      -516.7441
  17   1.0000     -18.985226      -516.6143
  18   1.0000     -10.359077      -281.8848
  19   1.0000     -10.289020      -279.9785
  20   1.0000     -10.286131      -279.8998
  21   1.0000     -10.280368      -279.7430
  22   1.0000     -10.271700      -279.5072
  23   1.0000     -10.269065      -279.4355
  24   1.0000     -10.266491      -279.3654
  25   1.0000     -10.187610      -277.2190
  26   1.0000      -1.286949       -35.0197
  27   1.0000      -1.242559       -33.8118
  28   1.0000      -1.233287       -33.5595
  29   1.0000      -1.223466       -33.2922
  30   1.0000      -1.216428       -33.1007
  31   1.0000      -1.212224       -32.9863
  32   1.0000      -1.206681       -32.8355
  33   1.0000      -1.202052       -32.7095
  34   1.0000      -1.193157       -32.4675
  35   1.0000      -1.182571       -32.1794
  36   1.0000      -1.180155       -32.1136
  37   1.0000      -1.171451       -31.8768
  38   1.0000      -1.164191       -31.6793
  39   1.0000      -1.161840       -31.6153
  40   1.0000      -1.156945       -31.4821
  41   1.0000      -0.995668       -27.0935
  42   1.0000      -0.941804       -25.6278
  43   1.0000      -0.911757       -24.8102
  44   1.0000      -0.758814       -20.6484
  45   1.0000      -0.754834       -20.5401
  46   1.0000      -0.723839       -19.6967
  47   1.0000      -0.694762       -18.9054
  48   1.0000      -0.658535       -17.9196
  49   1.0000      -0.628336       -17.0979
  50   1.0000      -0.603940       -16.4340
  51   1.0000      -0.576133       -15.6774
  52   1.0000      -0.572293       -15.5729
  53   1.0000      -0.570330       -15.5195
  54   1.0000      -0.560587       -15.2543
  55   1.0000      -0.552474       -15.0336
  56   1.0000      -0.550887       -14.9904
  57   1.0000      -0.539521       -14.6811
  58   1.0000      -0.534633       -14.5481
  59   1.0000      -0.527714       -14.3598
  60   1.0000      -0.525174       -14.2907
  61   1.0000      -0.521369       -14.1872
  62   1.0000      -0.512939       -13.9578
  63   1.0000      -0.504777       -13.7357
  64   1.0000      -0.501154       -13.6371
  65   1.0000      -0.493987       -13.4421
  66   1.0000      -0.474564       -12.9135
  67   1.0000      -0.447318       -12.1722
  68   1.0000      -0.446001       -12.1363
  69   1.0000      -0.441470       -12.0130
  70   1.0000      -0.432206       -11.7609
  71   1.0000      -0.428141       -11.6503
  72   1.0000      -0.426565       -11.6074
  73   1.0000      -0.422756       -11.5038
  74   1.0000      -0.419485       -11.4148
  75   1.0000      -0.416837       -11.3427
  76   1.0000      -0.415762       -11.3135
  77   1.0000      -0.413559       -11.2535
  78   1.0000      -0.409781       -11.1507
  79   1.0000      -0.407250       -11.0818
  80   1.0000      -0.401233       -10.9181
  81   1.0000      -0.399497       -10.8709
  82   1.0000      -0.394413       -10.7325
  83   1.0000      -0.389576       -10.6009
  84   1.0000      -0.388837       -10.5808
  85   1.0000      -0.388048       -10.5593
  86   1.0000      -0.384529       -10.4636
  87   1.0000      -0.378194       -10.2912
  88   1.0000      -0.377892       -10.2830
  89   1.0000      -0.375574       -10.2199
  90   1.0000      -0.371989       -10.1223
  91   1.0000      -0.368744       -10.0340
  92   1.0000      -0.367251        -9.9934
  93   1.0000      -0.365151        -9.9363
  94   1.0000      -0.360582        -9.8119
  95   1.0000      -0.359368        -9.7789
  96   1.0000      -0.348258        -9.4766
  97   1.0000      -0.339839        -9.2475
  98   1.0000      -0.326341        -8.8802
  99   1.0000      -0.318632        -8.6704
 100   1.0000      -0.290518        -7.9054
 101   1.0000      -0.254426        -6.9233
 102   1.0000      -0.231230        -6.2921
 103   1.0000      -0.220203        -5.9920
 104   1.0000      -0.213420        -5.8075
 105   0.0000      -0.015790        -0.4297
 106   0.0000       0.021885         0.5955
 107   0.0000       0.039485         1.0744
 108   0.0000       0.053158         1.4465
 109   0.0000       0.067474         1.8361

MULLIKEN ATOMIC CHARGES AND SPIN POPULATIONS
--------------------------------------------
   0 C :    0.379628    0.077568
   1 C :    0.255665    0.140844
   2 C :    0.202173    0.249766
   3 C :    0.218664    0.253558
   4 C :    0.249056    0.147792
   5 C :    0.238844    0.067760
   6 C :    0.310673    0.028734
   7 C :    0.211815    0.011642
   8 F :   -0.160205   -0.001384
   9 F :   -0.160688   -0.001395
  10 F :   -0.172456    0.013490
  11 F :   -0.197801    0.000509
  12 F :   -0.197470    0.000511
  13 F :   -0.222529    0.000722
  14 F :   -0.219883    0.000477
  15 F :   -0.223588    0.000076
  16 F :   -0.218107   -0.000276
  17 F :   -0.205342   -0.001349
  18 F :   -0.204118   -0.001020
  19 F :   -0.196442   -0.000835
  20 F :   -0.194854   -0.000175
  21 F :   -0.209242   -0.000140
  22 F :   -0.207246    0.000023
  23 O :   -0.479226    0.007573
  24 O :   -0.538459    0.005544
  25 O :   -0.745369   -0.000019
  26 H :    0.329353   -0.000003
  27 H :    0.357153    0.000006
Sum of atomic charges         :   -2.0000000

LOEWDIN ATOMIC CHARGES AND SPIN POPULATIONS
-------------------------------------------
   0 C :   -0.656827    0.065149
   1 C :   -0.481934    0.147143
   2 C :   -0.474544    0.219127
   3 C :   -0.474922    0.214634
   4 C :   -0.471195    0.137198
   5 C :   -0.461253    0.066740
   6 C :   -0.445135    0.031376
   7 C :   -0.669031    0.012718
   8 F :    0.196521    0.000812
   9 F :    0.195915    0.000775
  10 F :    0.155837    0.023328
  11 F :    0.156255    0.006302
  12 F :    0.156595    0.006206
  13 F :    0.125305    0.010459
  14 F :    0.129836    0.009964
  15 F :    0.124426    0.009743
  16 F :    0.132252    0.009259
  17 F :    0.154785    0.004647
  18 F :    0.153953    0.005143
  19 F :    0.174511    0.001390
  20 F :    0.172653    0.002188
  21 F :    0.149725    0.001092
  22 F :    0.149376    0.001396
  23 O :   -0.043019    0.007408
  24 O :   -0.064755    0.005836
  25 O :   -0.378587   -0.000011
  26 H :    0.153629   -0.000002
  27 H :    0.139629   -0.000019

  Mayer bond orders larger than 0.100000
B(  0-C ,  1-C ) :   0.9654 B(  0-C ,  8-F ) :   1.1493 B(  0-C ,  9-F ) :   1.1488
B(  0-C , 10-F ) :   1.0988 B(  1-C ,  2-C ) :   0.9203 B(  1-C , 11-F ) :   1.0378
B(  1-C , 12-F ) :   1.0373 B(  2-C ,  3-C ) :   0.9026 B(  2-C , 13-F ) :   1.0018
B(  2-C , 14-F ) :   1.0047 B(  3-C ,  4-C ) :   0.9087 B(  3-C , 15-F ) :   0.9947
B(  3-C , 16-F ) :   1.0046 B(  4-C ,  5-C ) :   0.8988 B(  4-C , 17-F ) :   1.0330
B(  4-C , 18-F ) :   1.0347 B(  5-C ,  6-C ) :   0.9032 B(  5-C , 19-F ) :   1.0543
B(  5-C , 20-F ) :   1.0675 B(  6-C ,  7-C ) :   0.8835 B(  6-C , 21-F ) :   1.0353
B(  6-C , 22-F ) :   1.0535 B(  7-C , 23-O ) :   1.8975 B(  7-C , 24-O ) :   1.6707
B( 24-O , 27-H ) :   0.1223 B( 25-O , 26-H ) :   0.9003 B( 25-O , 27-H ) :   0.8061

Dispersion correction           -0.031594831
FINAL SINGLE POINT ENERGY     -2030.411935769887

DIPOLE MOMENT
-------------

Method             : SCF
Type of density    : Electron Density
Multiplicity       :   2
Irrep              :   0
Energy             : -2030.3803409390936849 Eh
Relativity type    :
Basis              : AO
                                X                 Y                 Z
Electronic contribution:      8.361209277      29.010320629       6.911386584
Nuclear contribution   :     -8.075218383     -22.188178799      -5.624731238
                        -----------------------------------------
Total Dipole Moment    :      0.285990894       6.822141830       1.286655346
                        -----------------------------------------
Magnitude (a.u.)       :      6.948301369
Magnitude (Debye)      :     17.661178523

Rotational constants in cm-1:             0.017106             0.003042             0.002938
Rotational constants in MHz :           512.826356            91.190160            88.082134

                             ****ORCA TERMINATED NORMALLY****
TOTAL RUN TIME: 0 days 2 hours 0 minutes 38 seconds 554 msec
