                         Program Version 6.0.1  -  RELEASE   -
|  1> !r2scanh def2-TZVP freq d3 TightSCF SlowConv defgrid2
|  2>
|  3> %pal
|  4> nprocs 20
|  5> end
|  6>
|  7> %scf
|  8> MaxIter 1500
|  9> end
| 10>
| 11> %maxcore 8000
| 12>
| 13> !CPCM
| 14> %cpcm smd true
| 15> SMDsolvent "ACETONITRILE"
| 16> end
| 17>
| 18> * xyz -1 1
| 19> 6        4.777456000      0.107992000     -0.411338000
| 20> 8        5.358632000     -0.764232000     -1.063863000
| 21> 8        5.015713000      1.311465000     -0.238711000
| 22> 6        3.486833000     -0.369723000      0.352071000
| 23> 6        2.203596000      0.299417000     -0.192376000
| 24> 6        0.883313000     -0.438856000      0.176023000
| 25> 6       -0.386015000      0.451788000      0.020064000
| 26> 6       -1.704180000     -0.376729000     -0.056452000
| 27> 6       -2.969297000      0.471581000      0.264562000
| 28> 6       -4.293126000     -0.165508000     -0.239690000
| 29> 9        3.305397000     -1.714537000      0.268441000
| 30> 9        3.581359000     -0.073390000      1.677295000
| 31> 9        2.115652000      1.560328000      0.269607000
| 32> 9        2.283897000      0.342701000     -1.539223000
| 33> 9        0.745160000     -1.514882000     -0.617948000
| 34> 9        0.946267000     -0.847860000      1.453761000
| 35> 9       -0.462789000      1.282556000      1.072027000
| 36> 9       -0.283242000      1.179059000     -1.102641000
| 37> 9       -1.645208000     -1.388110000      0.823403000
| 38> 9       -1.823082000     -0.885618000     -1.292360000
| 39> 9       -2.858370000      1.682195000     -0.303686000
| 40> 9       -3.064865000      0.619677000      1.591956000
| 41> 9       -4.362491000     -1.441520000      0.124610000
| 42> 9       -5.314885000      0.490207000      0.297745000
| 43> 9       -4.384319000     -0.084445000     -1.559733000
| 44> *
| 45>
| 46>                          ****END OF INPUT****

CARTESIAN COORDINATES (ANGSTROEM)
---------------------------------
  C      4.777456    0.107992   -0.411338
  O      5.358632   -0.764232   -1.063863
  O      5.015713    1.311465   -0.238711
  C      3.486833   -0.369723    0.352071
  C      2.203596    0.299417   -0.192376
  C      0.883313   -0.438856    0.176023
  C     -0.386015    0.451788    0.020064
  C     -1.704180   -0.376729   -0.056452
  C     -2.969297    0.471581    0.264562
  C     -4.293126   -0.165508   -0.239690
  F      3.305397   -1.714537    0.268441
  F      3.581359   -0.073390    1.677295
  F      2.115652    1.560328    0.269607
  F      2.283897    0.342701   -1.539223
  F      0.745160   -1.514882   -0.617948
  F      0.946267   -0.847860    1.453761
  F     -0.462789    1.282556    1.072027
  F     -0.283242    1.179059   -1.102641
  F     -1.645208   -1.388110    0.823403
  F     -1.823082   -0.885618   -1.292360
  F     -2.858370    1.682195   -0.303686
  F     -3.064865    0.619677    1.591956
  F     -4.362491   -1.441520    0.124610
  F     -5.314885    0.490207    0.297745
  F     -4.384319   -0.084445   -1.559733

 Total Charge           Charge          ....   -1
 Multiplicity           Mult            ....    1
 Number of Electrons    NEL             ....  200
 Basis Dimension        Dim             ....  775

ORBITAL ENERGIES
----------------

  NO   OCC          E(Eh)            E(eV)
   0   2.0000     -24.732253      -672.9988
   1   2.0000     -24.731534      -672.9793
   2   2.0000     -24.731275      -672.9722
   3   2.0000     -24.731109      -672.9677
   4   2.0000     -24.731062      -672.9664
   5   2.0000     -24.730448      -672.9497
   6   2.0000     -24.730143      -672.9414
   7   2.0000     -24.728468      -672.8958
   8   2.0000     -24.728341      -672.8924
   9   2.0000     -24.722934      -672.7452
  10   2.0000     -24.722158      -672.7241
  11   2.0000     -24.711236      -672.4269
  12   2.0000     -24.711049      -672.4218
  13   2.0000     -24.686395      -671.7510
  14   2.0000     -24.686036      -671.7412
  15   2.0000     -19.049410      -518.3608
  16   2.0000     -19.047504      -518.3089
  17   2.0000     -10.439886      -284.0837
  18   2.0000     -10.386311      -282.6259
  19   2.0000     -10.384967      -282.5893
  20   2.0000     -10.382919      -282.5336
  21   2.0000     -10.375598      -282.3344
  22   2.0000     -10.359991      -281.9097
  23   2.0000     -10.322322      -280.8847
  24   2.0000     -10.233614      -278.4708
  25   2.0000      -1.361565       -37.0501
  26   2.0000      -1.337724       -36.4013
  27   2.0000      -1.322144       -35.9774
  28   2.0000      -1.314249       -35.7625
  29   2.0000      -1.310139       -35.6507
  30   2.0000      -1.298172       -35.3251
  31   2.0000      -1.273234       -34.6465
  32   2.0000      -1.269831       -34.5538
  33   2.0000      -1.266844       -34.4726
  34   2.0000      -1.266153       -34.4538
  35   2.0000      -1.259467       -34.2718
  36   2.0000      -1.255943       -34.1760
  37   2.0000      -1.251698       -34.0604
  38   2.0000      -1.239783       -33.7362
  39   2.0000      -1.211191       -32.9582
  40   2.0000      -1.029082       -28.0028
  41   2.0000      -0.944747       -25.7079
  42   2.0000      -0.844982       -22.9931
  43   2.0000      -0.822200       -22.3732
  44   2.0000      -0.791818       -21.5465
  45   2.0000      -0.752816       -20.4852
  46   2.0000      -0.709783       -19.3142
  47   2.0000      -0.681010       -18.5312
  48   2.0000      -0.662621       -18.0308
  49   2.0000      -0.641520       -17.4566
  50   2.0000      -0.636761       -17.3271
  51   2.0000      -0.628948       -17.1145
  52   2.0000      -0.619887       -16.8680
  53   2.0000      -0.615731       -16.7549
  54   2.0000      -0.613910       -16.7053
  55   2.0000      -0.601273       -16.3615
  56   2.0000      -0.597154       -16.2494
  57   2.0000      -0.592601       -16.1255
  58   2.0000      -0.586089       -15.9483
  59   2.0000      -0.574238       -15.6258
  60   2.0000      -0.571089       -15.5401
  61   2.0000      -0.565185       -15.3795
  62   2.0000      -0.554768       -15.0960
  63   2.0000      -0.540138       -14.6979
  64   2.0000      -0.504105       -13.7174
  65   2.0000      -0.500202       -13.6112
  66   2.0000      -0.494544       -13.4572
  67   2.0000      -0.490614       -13.3503
  68   2.0000      -0.486474       -13.2376
  69   2.0000      -0.483006       -13.1432
  70   2.0000      -0.478596       -13.0233
  71   2.0000      -0.472424       -12.8553
  72   2.0000      -0.468578       -12.7506
  73   2.0000      -0.466295       -12.6885
  74   2.0000      -0.463902       -12.6234
  75   2.0000      -0.457274       -12.4431
  76   2.0000      -0.454389       -12.3645
  77   2.0000      -0.449230       -12.2242
  78   2.0000      -0.447318       -12.1721
  79   2.0000      -0.443545       -12.0695
  80   2.0000      -0.438398       -11.9294
  81   2.0000      -0.437601       -11.9077
  82   2.0000      -0.434583       -11.8256
  83   2.0000      -0.429997       -11.7008
  84   2.0000      -0.428956       -11.6725
  85   2.0000      -0.426175       -11.5968
  86   2.0000      -0.423176       -11.5152
  87   2.0000      -0.419629       -11.4187
  88   2.0000      -0.418064       -11.3761
  89   2.0000      -0.410950       -11.1825
  90   2.0000      -0.401765       -10.9326
  91   2.0000      -0.397932       -10.8283
  92   2.0000      -0.388448       -10.5702
  93   2.0000      -0.385526       -10.4907
  94   2.0000      -0.375433       -10.2161
  95   2.0000      -0.356432        -9.6990
  96   2.0000      -0.324473        -8.8294
  97   2.0000      -0.241729        -6.5778
  98   2.0000      -0.225515        -6.1366
  99   2.0000      -0.223376        -6.0784
 100   0.0000      -0.013684        -0.3724
 101   0.0000       0.000353         0.0096
 102   0.0000       0.020525         0.5585
 103   0.0000       0.050920         1.3856
 104   0.0000       0.052184         1.4200

MULLIKEN ATOMIC CHARGES
-----------------------
   0 C :    0.212184
   1 O :   -0.508683
   2 O :   -0.523158
   3 C :    0.343766
   4 C :    0.299403
   5 C :    0.327789
   6 C :    0.322610
   7 C :    0.298994
   8 C :    0.330250
   9 C :    0.471015
  10 F :   -0.207471
  11 F :   -0.213454
  12 F :   -0.179005
  13 F :   -0.185774
  14 F :   -0.171679
  15 F :   -0.169993
  16 F :   -0.166151
  17 F :   -0.165339
  18 F :   -0.164201
  19 F :   -0.164089
  20 F :   -0.163232
  21 F :   -0.160013
  22 F :   -0.156118
  23 F :   -0.153523
  24 F :   -0.154130
Sum of atomic charges:   -1.0000000

LOEWDIN ATOMIC CHARGES
----------------------
   0 C :   -0.696491
   1 O :   -0.047800
   2 O :   -0.054659
   3 C :   -0.450985
   4 C :   -0.468721
   5 C :   -0.470024
   6 C :   -0.471078
   7 C :   -0.472156
   8 C :   -0.479074
   9 C :   -0.679462
  10 F :    0.170812
  11 F :    0.163776
  12 F :    0.216646
  13 F :    0.210705
  14 F :    0.223085
  15 F :    0.225168
  16 F :    0.229215
  17 F :    0.230738
  18 F :    0.231827
  19 F :    0.231175
  20 F :    0.230259
  21 F :    0.231847
  22 F :    0.230657
  23 F :    0.231574
  24 F :    0.232964

  Mayer bond orders larger than 0.100000
B(  0-C ,  1-O ) :   1.8539 B(  0-C ,  2-O ) :   1.8243 B(  0-C ,  3-C ) :   0.8375
B(  3-C ,  4-C ) :   0.9321 B(  3-C , 10-F ) :   1.0342 B(  3-C , 11-F ) :   1.0261
B(  4-C ,  5-C ) :   0.9237 B(  4-C , 12-F ) :   1.0635 B(  4-C , 13-F ) :   1.0593
B(  5-C ,  6-C ) :   0.9346 B(  5-C , 14-F ) :   1.0690 B(  5-C , 15-F ) :   1.0806
B(  6-C ,  7-C ) :   0.9299 B(  6-C , 16-F ) :   1.0775 B(  6-C , 17-F ) :   1.0814
B(  7-C ,  8-C ) :   0.9357 B(  7-C , 18-F ) :   1.0811 B(  7-C , 19-F ) :   1.0898
B(  8-C ,  9-C ) :   0.9537 B(  8-C , 20-F ) :   1.0822 B(  8-C , 21-F ) :   1.0980
B(  9-C , 22-F ) :   1.1286 B(  9-C , 23-F ) :   1.1336 B(  9-C , 24-F ) :   1.1426

Dispersion correction           -0.008486219
FINAL SINGLE POINT ENERGY     -1953.015940190295

DIPOLE MOMENT
-------------

Method             : SCF
Type of density    : Electron Density
Multiplicity       :   1
Irrep              :   0
Energy             : -1953.0074539708766679 Eh
Relativity type    :
Basis              : AO
                                X                 Y                 Z
Electronic contribution:    -18.653154668      -0.879500220       1.912396232
Nuclear contribution   :      9.771523414       0.523070992      -1.089905840
                        -----------------------------------------
Total Dipole Moment    :     -8.881631254      -0.356429228       0.822490392
                        -----------------------------------------
Magnitude (a.u.)       :      8.926752263
Magnitude (Debye)      :     22.690001050

VIBRATIONAL FREQUENCIES
-----------------------

Scaling factor for frequencies =  1.000000000  (already applied!)

     0:       0.00 cm**-1
     1:       0.00 cm**-1
     2:       0.00 cm**-1
     3:       0.00 cm**-1
     4:       0.00 cm**-1
     5:       0.00 cm**-1
     6:      29.57 cm**-1
     7:      35.32 cm**-1
     8:      42.49 cm**-1
     9:      47.56 cm**-1
    10:      57.32 cm**-1
    11:      71.49 cm**-1
    12:      74.47 cm**-1
    13:      77.63 cm**-1
    14:     118.93 cm**-1
    15:     135.08 cm**-1
    16:     162.87 cm**-1
    17:     190.98 cm**-1
    18:     201.85 cm**-1
    19:     205.14 cm**-1
    20:     212.53 cm**-1
    21:     234.94 cm**-1
    22:     246.67 cm**-1
    23:     254.03 cm**-1
    24:     259.21 cm**-1
    25:     262.77 cm**-1
    26:     288.09 cm**-1
    27:     306.78 cm**-1
    28:     316.61 cm**-1
    29:     338.30 cm**-1
    30:     349.76 cm**-1
    31:     364.37 cm**-1
    32:     368.14 cm**-1
    33:     373.61 cm**-1
    34:     374.96 cm**-1
    35:     382.05 cm**-1
    36:     415.23 cm**-1
    37:     466.57 cm**-1
    38:     508.64 cm**-1
    39:     531.79 cm**-1
    40:     544.39 cm**-1
    41:     560.49 cm**-1
    42:     563.97 cm**-1
    43:     584.40 cm**-1
    44:     604.64 cm**-1
    45:     620.83 cm**-1
    46:     652.65 cm**-1
    47:     669.17 cm**-1
    48:     694.95 cm**-1
    49:     730.68 cm**-1
    50:     737.75 cm**-1
    51:     780.71 cm**-1
    52:     803.83 cm**-1
    53:     885.12 cm**-1
    54:    1015.99 cm**-1
    55:    1104.55 cm**-1
    56:    1109.35 cm**-1
    57:    1133.00 cm**-1
    58:    1135.83 cm**-1
    59:    1149.79 cm**-1
    60:    1158.10 cm**-1
    61:    1169.51 cm**-1
    62:    1172.45 cm**-1
    63:    1179.30 cm**-1
    64:    1187.70 cm**-1
    65:    1192.06 cm**-1
    66:    1209.15 cm**-1
    67:    1218.77 cm**-1
    68:    1244.38 cm**-1
    69:    1275.62 cm**-1
    70:    1294.01 cm**-1
    71:    1315.92 cm**-1
    72:    1368.21 cm**-1
    73:    1399.22 cm**-1
    74:    1758.71 cm**-1

IR SPECTRUM
-----------

 Mode   freq       eps      Int      T**2         TX        TY        TZ
       cm**-1   L/(mol*cm) km/mol    a.u.
----------------------------------------------------------------------------
  6:     29.57   0.000671    3.39  0.007081  (-0.022318 -0.011941 -0.080251)
  7:     35.32   0.000145    0.73  0.001278  ( 0.001757 -0.035648 -0.001941)
  8:     42.49   0.000649    3.28  0.004764  (-0.000272 -0.067685 -0.013515)
  9:     47.56   0.000007    0.04  0.000048  (-0.000240  0.005974  0.003458)
 10:     57.32   0.000140    0.71  0.000761  (-0.012425  0.007337 -0.023510)
 11:     71.49   0.000038    0.19  0.000165  (-0.001242 -0.012421 -0.003079)
 12:     74.47   0.000440    2.22  0.001842  (-0.015666  0.033290 -0.022103)
 13:     77.63   0.000176    0.89  0.000709  (-0.010977  0.009432 -0.022344)
 14:    118.93   0.000872    4.41  0.002289  (-0.039894  0.005772 -0.025777)
 15:    135.08   0.000319    1.61  0.000736  ( 0.025474  0.002873 -0.008872)
 16:    162.87   0.000486    2.46  0.000931  ( 0.024837 -0.012126  0.012935)
 17:    190.98   0.002946   14.89  0.004813  ( 0.000616 -0.000354 -0.069373)
 18:    201.85   0.000197    0.99  0.000304  ( 0.010570  0.007484  0.011685)
 19:    205.14   0.000072    0.36  0.000109  ( 0.009158 -0.001501  0.004780)
 20:    212.53   0.000611    3.09  0.000897  (-0.000881  0.029806 -0.002733)
 21:    234.94   0.000038    0.19  0.000050  (-0.000074  0.001585  0.006879)
 22:    246.67   0.000016    0.08  0.000020  (-0.004345  0.000093 -0.000949)
 23:    254.03   0.000149    0.76  0.000184  (-0.006697  0.002160  0.011582)
 24:    259.21   0.000004    0.02  0.000005  (-0.000117 -0.000279  0.002125)
 25:    262.77   0.000214    1.08  0.000254  ( 0.006359 -0.001636  0.014517)
 26:    288.09   0.001391    7.03  0.001507  ( 0.036914 -0.011218 -0.004306)
 27:    306.78   0.000037    0.19  0.000038  ( 0.001955 -0.000004 -0.005811)
 28:    316.61   0.000163    0.82  0.000161  (-0.007936  0.009883  0.000189)
 29:    338.30   0.000106    0.53  0.000097  (-0.007438  0.002665 -0.005913)
 30:    349.76   0.000566    2.86  0.000505  (-0.014121  0.000926 -0.017460)
 31:    364.37   0.000161    0.81  0.000138  ( 0.006781  0.000192  0.009581)
 32:    368.14   0.000027    0.14  0.000023  ( 0.004574  0.000510 -0.001274)
 33:    373.61   0.000044    0.22  0.000037  ( 0.005499 -0.002100 -0.001378)
 34:    374.96   0.000457    2.31  0.000380  ( 0.019428 -0.000109  0.001706)
 35:    382.05   0.000096    0.48  0.000078  ( 0.008828 -0.000353 -0.000136)
 36:    415.23   0.000181    0.91  0.000136  (-0.006843 -0.009333  0.001359)
 37:    466.57   0.000808    4.09  0.000541  ( 0.016706 -0.006143  0.014964)
 38:    508.64   0.009259   46.79  0.005680  ( 0.075118 -0.005046  0.003512)
 39:    531.79   0.007917   40.01  0.004646  ( 0.062135 -0.026760 -0.008301)
 40:    544.39   0.006042   30.53  0.003463  (-0.052804  0.013192 -0.022385)
 41:    560.49   0.010309   52.10  0.005740  ( 0.058168  0.047986 -0.007337)
 42:    563.97   0.004434   22.41  0.002453  (-0.047922  0.004805 -0.011568)
 43:    584.40   0.001351    6.83  0.000722  (-0.010107  0.007318  0.023789)
 44:    604.64   0.003326   16.81  0.001717  (-0.040926  0.001115 -0.006364)
 45:    620.83   0.000298    1.51  0.000150  ( 0.005475 -0.010406  0.003414)
 46:    652.65   0.025473  128.73  0.012180  (-0.109554 -0.007246 -0.011206)
 47:    669.17   0.021993  111.14  0.010256  ( 0.100702 -0.000980 -0.010691)
 48:    694.95   0.000155    0.78  0.000070  (-0.007726 -0.002738  0.001594)
 49:    730.68   0.000250    1.26  0.000107  (-0.003211  0.002595  0.009467)
 50:    737.75   0.003464   17.50  0.001465  (-0.037876  0.005141 -0.002024)
 51:    780.71   0.000665    3.36  0.000266  (-0.004716  0.012718  0.009044)
 52:    803.83   0.019001   96.03  0.007377  ( 0.061809  0.027381 -0.052978)
 53:    885.12   0.003524   17.81  0.001242  ( 0.034655 -0.000564 -0.006408)
 54:   1015.99   0.010080   50.94  0.003096  (-0.050847  0.011389 -0.019517)
 55:   1104.55   0.036363  183.76  0.010273  ( 0.034669  0.087390  0.037876)
 56:   1109.35   0.025693  129.84  0.007227  (-0.015369  0.026815  0.079197)
 57:   1133.00   0.035030  177.03  0.009648  ( 0.015597 -0.038021  0.089217)
 58:   1135.83   0.003975   20.09  0.001092  (-0.012830  0.026651 -0.014735)
 59:   1149.79   0.039243  198.32  0.010651  (-0.026114 -0.097344  0.022205)
 60:   1158.10   0.110233  557.07  0.029704  (-0.006400 -0.164469 -0.051115)
 61:   1169.51   0.011696   59.11  0.003121  (-0.001526  0.053068  0.017387)
 62:   1172.45   0.054005  272.92  0.014374  ( 0.013056  0.042962  0.111166)
 63:   1179.30   0.107426  542.89  0.028427  ( 0.005666 -0.017410  0.167606)
 64:   1187.70   0.086917  439.24  0.022837  (-0.034326  0.139268 -0.047575)
 65:   1192.06   0.066486  335.99  0.017405  (-0.032349  0.040661  0.121266)
 66:   1209.15   0.092937  469.66  0.023986  ( 0.021000  0.053696 -0.143741)
 67:   1218.77   0.005447   27.53  0.001395  ( 0.003148  0.009142  0.036071)
 68:   1244.38   0.012236   61.83  0.003068  (-0.038084  0.008787  0.039253)
 69:   1275.62   0.004177   21.11  0.001022  ( 0.015426 -0.021562 -0.017860)
 70:   1294.01   0.004315   21.81  0.001041  (-0.021172  0.020188  0.013597)
 71:   1315.92   0.005967   30.16  0.001415  ( 0.018069 -0.024959  0.021580)
 72:   1368.21   0.054995  277.92  0.012543  (-0.109660 -0.017535  0.014511)
 73:   1399.22   0.018346   92.71  0.004092  (-0.056977 -0.016336  0.024048)
 74:   1758.71   0.160352  810.35  0.028453  (-0.027766  0.154377  0.062044)

--------------------------
THERMOCHEMISTRY AT 298.15K
--------------------------

Temperature         ...   298.15 K
Pressure            ...     1.00 atm
Total Mass          ...   413.06 AMU
Quasi RRHO          ...     True
Cut-Off Frequency   ...     1.00 cm^-1

Throughout the following assumptions are being made:
  (1) The electronic state is orbitally nondegenerate
  (2) There are no thermally accessible electronically excited states
  (3) Hindered rotations indicated by low frequency modes are not
      treated as such but are treated as vibrations and this may
      cause some error
  (4) All equations used are the standard statistical mechanics
      equations for an ideal gas
  (5) All vibrations are strictly harmonic

freq.      29.57  E(vib)   ...       0.55
freq.      35.32  E(vib)   ...       0.54
freq.      42.49  E(vib)   ...       0.53
freq.      47.56  E(vib)   ...       0.53
freq.      57.32  E(vib)   ...       0.51
freq.      71.49  E(vib)   ...       0.50
freq.      74.47  E(vib)   ...       0.49
freq.      77.63  E(vib)   ...       0.49
freq.     118.93  E(vib)   ...       0.44
freq.     135.08  E(vib)   ...       0.42
freq.     162.87  E(vib)   ...       0.39
freq.     190.98  E(vib)   ...       0.36
freq.     201.85  E(vib)   ...       0.35
freq.     205.14  E(vib)   ...       0.35
freq.     212.53  E(vib)   ...       0.34
freq.     234.94  E(vib)   ...       0.32
freq.     246.67  E(vib)   ...       0.31
freq.     254.03  E(vib)   ...       0.30
freq.     259.21  E(vib)   ...       0.30
freq.     262.77  E(vib)   ...       0.29
freq.     288.09  E(vib)   ...       0.27
freq.     306.78  E(vib)   ...       0.26
freq.     316.61  E(vib)   ...       0.25
freq.     338.30  E(vib)   ...       0.23
freq.     349.76  E(vib)   ...       0.23
freq.     364.37  E(vib)   ...       0.22
freq.     368.14  E(vib)   ...       0.21
freq.     373.61  E(vib)   ...       0.21
freq.     374.96  E(vib)   ...       0.21
freq.     382.05  E(vib)   ...       0.21
freq.     415.23  E(vib)   ...       0.19
freq.     466.57  E(vib)   ...       0.16
freq.     508.64  E(vib)   ...       0.14
freq.     531.79  E(vib)   ...       0.13
freq.     544.39  E(vib)   ...       0.12
freq.     560.49  E(vib)   ...       0.11
freq.     563.97  E(vib)   ...       0.11
freq.     584.40  E(vib)   ...       0.11
freq.     604.64  E(vib)   ...       0.10
freq.     620.83  E(vib)   ...       0.09
freq.     652.65  E(vib)   ...       0.08
freq.     669.17  E(vib)   ...       0.08
freq.     694.95  E(vib)   ...       0.07
freq.     730.68  E(vib)   ...       0.06
freq.     737.75  E(vib)   ...       0.06
freq.     780.71  E(vib)   ...       0.05
freq.     803.83  E(vib)   ...       0.05
freq.     885.12  E(vib)   ...       0.04
freq.    1015.99  E(vib)   ...       0.02
freq.    1104.55  E(vib)   ...       0.02
freq.    1109.35  E(vib)   ...       0.02
freq.    1133.00  E(vib)   ...       0.01
freq.    1135.83  E(vib)   ...       0.01
freq.    1149.79  E(vib)   ...       0.01
freq.    1158.10  E(vib)   ...       0.01
freq.    1169.51  E(vib)   ...       0.01
freq.    1172.45  E(vib)   ...       0.01
freq.    1179.30  E(vib)   ...       0.01
freq.    1187.70  E(vib)   ...       0.01
freq.    1192.06  E(vib)   ...       0.01
freq.    1209.15  E(vib)   ...       0.01
freq.    1218.77  E(vib)   ...       0.01
freq.    1244.38  E(vib)   ...       0.01
freq.    1275.62  E(vib)   ...       0.01
freq.    1294.01  E(vib)   ...       0.01
freq.    1315.92  E(vib)   ...       0.01
freq.    1368.21  E(vib)   ...       0.01
freq.    1399.22  E(vib)   ...       0.00
freq.    1758.71  E(vib)   ...       0.00

------------
INNER ENERGY
------------

The inner energy is: U= E(el) + E(ZPE) + E(vib) + E(rot) + E(trans)
    E(el)   - is the total energy from the electronic structure calculation
              = E(kin-el) + E(nuc-el) + E(el-el) + E(nuc-nuc)
    E(ZPE)  - the the zero temperature vibrational energy from the frequency calculation
    E(vib)  - the the finite temperature correction to E(ZPE) due to population
              of excited vibrational states
    E(rot)  - is the rotational thermal energy
    E(trans)- is the translational thermal energy

Summary of contributions to the inner energy U:
Electronic energy                ...  -1953.01594019 Eh
Zero point energy                ...      0.09917077 Eh      62.23 kcal/mol
Thermal vibrational correction   ...      0.02005976 Eh      12.59 kcal/mol
Thermal rotational correction    ...      0.00141627 Eh       0.89 kcal/mol
Thermal translational correction ...      0.00141627 Eh       0.89 kcal/mol
-----------------------------------------------------------------------
Total thermal energy                  -1952.89387711 Eh

Summary of corrections to the electronic energy:
(perhaps to be used in another calculation)
Total thermal correction                  0.02289231 Eh      14.37 kcal/mol
Non-thermal (ZPE) correction              0.09917077 Eh      62.23 kcal/mol
-----------------------------------------------------------------------
Total correction                          0.12206308 Eh      76.60 kcal/mol

--------
ENTHALPY
--------

The enthalpy is H = U + kB*T
                kB is Boltzmann's constant
Total thermal energy              ...  -1952.89387711 Eh
Thermal Enthalpy correction       ...      0.00094421 Eh       0.59 kcal/mol
-----------------------------------------------------------------------
Total Enthalpy                    ...  -1952.89293290 Eh

Note: Only C1 symmetry has been detected, increase convergence thresholds
      if your molecule has a higher symmetry. Symmetry factor of 1.0 is
      used for the rotational entropy correction.

Note: Rotational entropy computed according to Herzberg
Infrared and Raman Spectra, Chapter V,1, Van Nostrand Reinhold, 1945
Point Group:  C1, Symmetry Number:   1
Rotational constants in cm-1:     0.021447     0.003785     0.003731

Vibrational entropy computed according to the QRRHO of S. Grimme
Chem.Eur.J. 2012 18 9955 using a reference frequency of 100.0 cm-1

-------
ENTROPY
-------

The entropy contributions are T*S = T*(S(el)+S(vib)+S(rot)+S(trans))
     S(el)   - electronic entropy
     S(vib)  - vibrational entropy
     S(rot)  - rotational entropy
     S(trans)- translational entropy
The entropies will be listed as multiplied by the temperature to get
units of energy

Electronic entropy                ...      0.00000000 Eh      0.00 kcal/mol
Vibrational entropy               ...      0.03569846 Eh     22.40 kcal/mol
Rotational entropy                ...      0.01659685 Eh     10.41 kcal/mol

                             ****ORCA TERMINATED NORMALLY****
TOTAL RUN TIME: 0 days 0 hours 17 minutes 9 seconds 70 msec
