                         Program Version 5.0.3 -  RELEASE  -
|  1> !TPSSh def2-TZVP opt d3 TightSCF SlowConv defgrid2
|  2>
|  3> %pal
|  4> nprocs 20
|  5> end
|  6>
|  7> %scf
|  8> MaxIter 1500
|  9> end
| 10>
| 11> %maxcore 8000
| 12>
| 13> !CPCM
| 14> %cpcm smd true
| 15> SMDsolvent "ACETONITRILE"
| 16> end
| 17>
| 18> * xyz -1 2
| 19> 6        4.790427000     -0.033865800     -0.529943200
| 20> 8        5.449345000     -1.206924000     -0.894594600
| 21> 8        4.978223000      1.323071000     -0.737377200
| 22> 6        3.506687600     -0.338741600      0.376153800
| 23> 6        2.222300000      0.400524800     -0.110681600
| 24> 6        0.900506800     -0.386389800      0.175703000
| 25> 6       -0.395261200      0.487294000      0.065549000
| 26> 6       -1.705693600     -0.364773800     -0.068373600
| 27> 6       -3.005136200      0.445344800      0.258164000
| 28> 6       -4.319880200     -0.214526000     -0.270540800
| 29> 9        3.211587400     -1.692050400      0.412735200
| 30> 9        3.741061800      0.055285800      1.689948800
| 31> 9        2.125696800      1.616867800      0.483236600
| 32> 9        2.314152400      0.589704000     -1.455769200
| 33> 9        0.794028800     -1.413561400     -0.700839000
| 34> 9        0.958350600     -0.884509000      1.435093400
| 35> 9       -0.498373400      1.260265600      1.173340200
| 36> 9       -0.299075000      1.289512600     -1.020910800
| 37> 9       -1.641790400     -1.418189000      0.779523800
| 38> 9       -1.792381400     -0.831391600     -1.336863600
| 39> 9       -2.918792200      1.679227200     -0.295171200
| 40> 9       -3.119771000      0.573779800      1.598579800
| 41> 9       -5.365669800      0.430528600      0.260394200
| 42> 9       -4.396020400     -0.128550600     -1.602941800
| 43> *
| 44>
| 45>                          ****END OF INPUT****
 Total Charge           Charge          ....   -1
 Multiplicity           Mult            ....    2
 Number of Electrons    NEL             ....  191
Dispersion correction           -0.029191911
FINAL SINGLE POINT ENERGY     -1853.884092038018
Dispersion correction            ... done
Dispersion correction           -0.029292816
FINAL SINGLE POINT ENERGY     -1853.926622093286
Dispersion correction            ... done
Dispersion correction           -0.029338079
FINAL SINGLE POINT ENERGY     -1853.931810539076
Dispersion correction            ... done
FINAL SINGLE POINT ENERGY     -1853.934962082843
FINAL SINGLE POINT ENERGY     -1853.934360483602
FINAL SINGLE POINT ENERGY     -1853.935709039834
FINAL SINGLE POINT ENERGY     -1853.935853637701
FINAL SINGLE POINT ENERGY     -1853.935908398209
FINAL SINGLE POINT ENERGY     -1853.935923664474
Dispersion correction            ... done
Dispersion correction           -0.029329340
FINAL SINGLE POINT ENERGY     -1853.935928759642
Dispersion correction            ... done
Dispersion correction           -0.029330608
FINAL SINGLE POINT ENERGY     -1853.935932236983
Dispersion correction            ... done
                    ***********************HURRAY********************

CARTESIAN COORDINATES (ANGSTROEM)
---------------------------------
  C      4.830367    0.084452   -0.361284
  O      5.424081   -0.776104   -1.029031
  O      5.078041    1.283708   -0.138023
  C      3.507588   -0.408846    0.354522
  C      2.231359    0.293319   -0.185240
  C      0.880454   -0.421509    0.152845
  C     -0.378246    0.499734   -0.004816
  C     -1.726945   -0.290864   -0.100264
  C     -2.998910    0.558680    0.209974
  C     -4.274131   -0.185152   -0.163653
  F      3.312341   -1.757101    0.214466
  F      3.580349   -0.169540    1.703311
  F      2.164492    1.556380    0.300192
  F      2.327050    0.363528   -1.539903
  F      0.731574   -1.492681   -0.660664
  F      0.916888   -0.857014    1.432395
  F     -0.436558    1.334069    1.056408
  F     -0.249385    1.241009   -1.127646
  F     -1.710030   -1.322989    0.772933
  F     -1.842430   -0.789799   -1.351706
  F     -2.909866    1.744643   -0.460724
  F     -3.042580    0.823423    1.532186
  F     -5.341278    0.163775    0.537566
  F     -4.539707   -0.237189   -1.459431

 Multiplicity           Mult            ....    2
 Number of Electrons    NEL             ....  191
 Basis Dimension        Dim             ....  744

ORBITAL ENERGIES
----------------
                 SPIN UP ORBITALS
  NO   OCC          E(Eh)            E(eV)
   0   1.0000     -24.663271      -671.1217
   1   1.0000     -24.663051      -671.1157
   2   1.0000     -24.656506      -670.9376
   3   1.0000     -24.655872      -670.9204
   4   1.0000     -24.654407      -670.8805
   5   1.0000     -24.654302      -670.8777
   6   1.0000     -24.653187      -670.8473
   7   1.0000     -24.650445      -670.7727
   8   1.0000     -24.649924      -670.7585
   9   1.0000     -24.649290      -670.7413
  10   1.0000     -24.638628      -670.4511
  11   1.0000     -24.638452      -670.4464
  12   1.0000     -24.614010      -669.7813
  13   1.0000     -24.613735      -669.7738
  14   1.0000     -18.988241      -516.6963
  15   1.0000     -18.986429      -516.6470
  16   1.0000     -10.338535      -281.3258
  17   1.0000     -10.338401      -281.3222
  18   1.0000     -10.338327      -281.3202
  19   1.0000     -10.331940      -281.1464
  20   1.0000     -10.316673      -280.7309
  21   1.0000     -10.313668      -280.6492
  22   1.0000     -10.278949      -279.7044
  23   1.0000     -10.189519      -277.2709
  24   1.0000      -1.298683       -35.3390
  25   1.0000      -1.290250       -35.1095
  26   1.0000      -1.278979       -34.8028
  27   1.0000      -1.270796       -34.5801
  28   1.0000      -1.268136       -34.5077
  29   1.0000      -1.259616       -34.2759
  30   1.0000      -1.233149       -33.5557
  31   1.0000      -1.231368       -33.5072
  32   1.0000      -1.228897       -33.4400
  33   1.0000      -1.220842       -33.2208
  34   1.0000      -1.214851       -33.0578
  35   1.0000      -1.214491       -33.0480
  36   1.0000      -1.203743       -32.7555
  37   1.0000      -1.175404       -31.9844
  38   1.0000      -0.996652       -27.1203
  39   1.0000      -0.915443       -24.9105
  40   1.0000      -0.821168       -22.3451
  41   1.0000      -0.800268       -21.7764
  42   1.0000      -0.769690       -20.9443
  43   1.0000      -0.729141       -19.8409
  44   1.0000      -0.683151       -18.5895
  45   1.0000      -0.651343       -17.7239
  46   1.0000      -0.641778       -17.4637
  47   1.0000      -0.611918       -16.6511
  48   1.0000      -0.610152       -16.6031
  49   1.0000      -0.600790       -16.3483
  50   1.0000      -0.591491       -16.0953
  51   1.0000      -0.588374       -16.0105
  52   1.0000      -0.584959       -15.9175
  53   1.0000      -0.572954       -15.5909
  54   1.0000      -0.570807       -15.5324
  55   1.0000      -0.564295       -15.3552
  56   1.0000      -0.554345       -15.0845
  57   1.0000      -0.550239       -14.9728
  58   1.0000      -0.546800       -14.8792
  59   1.0000      -0.537544       -14.6273
  60   1.0000      -0.526689       -14.3319
  61   1.0000      -0.521486       -14.1903
  62   1.0000      -0.478246       -13.0137
  63   1.0000      -0.476762       -12.9733
  64   1.0000      -0.472122       -12.8471
  65   1.0000      -0.467074       -12.7097
  66   1.0000      -0.460387       -12.5278
  67   1.0000      -0.456206       -12.4140
  68   1.0000      -0.453837       -12.3495
  69   1.0000      -0.449397       -12.2287
  70   1.0000      -0.445756       -12.1296
  71   1.0000      -0.443379       -12.0650
  72   1.0000      -0.437949       -11.9172
  73   1.0000      -0.435952       -11.8629
  74   1.0000      -0.431158       -11.7324
  75   1.0000      -0.427377       -11.6295
  76   1.0000      -0.422341       -11.4925
  77   1.0000      -0.420173       -11.4335
  78   1.0000      -0.418684       -11.3930
  79   1.0000      -0.415623       -11.3097
  80   1.0000      -0.411748       -11.2042
  81   1.0000      -0.409658       -11.1474
  82   1.0000      -0.405801       -11.0424
  83   1.0000      -0.402845       -10.9620
  84   1.0000      -0.400259       -10.8916
  85   1.0000      -0.390351       -10.6220
  86   1.0000      -0.382672       -10.4130
  87   1.0000      -0.377637       -10.2760
  88   1.0000      -0.374047       -10.1783
  89   1.0000      -0.362720        -9.8701
  90   1.0000      -0.350033        -9.5249
  91   1.0000      -0.318340        -8.6625
  92   1.0000      -0.248623        -6.7654
  93   1.0000      -0.231942        -6.3115
  94   1.0000      -0.217511        -5.9188
  95   1.0000      -0.215366        -5.8604
  96   0.0000      -0.015044        -0.4094
  97   0.0000      -0.006584        -0.1792
  98   0.0000       0.014700         0.4000
  99   0.0000       0.041096         1.1183
 100   0.0000       0.045736         1.2445

                 SPIN DOWN ORBITALS
  NO   OCC          E(Eh)            E(eV)
   0   1.0000     -24.659596      -671.0217
   1   1.0000     -24.659211      -671.0113
   2   1.0000     -24.656424      -670.9354
   3   1.0000     -24.655828      -670.9192
   4   1.0000     -24.654405      -670.8805
   5   1.0000     -24.654300      -670.8776
   6   1.0000     -24.653230      -670.8485
   7   1.0000     -24.649924      -670.7585
   8   1.0000     -24.649290      -670.7413
   9   1.0000     -24.648960      -670.7323
  10   1.0000     -24.638628      -670.4511
  11   1.0000     -24.638452      -670.4464
  12   1.0000     -24.614010      -669.7813
  13   1.0000     -24.613735      -669.7738
  14   1.0000     -18.988240      -516.6963
  15   1.0000     -18.986429      -516.6470
  16   1.0000     -10.338538      -281.3259
  17   1.0000     -10.338400      -281.3222
  18   1.0000     -10.337513      -281.2980
  19   1.0000     -10.331945      -281.1465
  20   1.0000     -10.316674      -280.7310
  21   1.0000     -10.297493      -280.2090
  22   1.0000     -10.278949      -279.7044
  23   1.0000     -10.189519      -277.2709
  24   1.0000      -1.297496       -35.3067
  25   1.0000      -1.285689       -34.9854
  26   1.0000      -1.277133       -34.7525
  27   1.0000      -1.270759       -34.5791
  28   1.0000      -1.266120       -34.4529
  29   1.0000      -1.259611       -34.2758
  30   1.0000      -1.231481       -33.5103
  31   1.0000      -1.230320       -33.4787
  32   1.0000      -1.225552       -33.3490
  33   1.0000      -1.220152       -33.2020
  34   1.0000      -1.214816       -33.0568
  35   1.0000      -1.212807       -33.0021
  36   1.0000      -1.203743       -32.7555
  37   1.0000      -1.175404       -31.9844
  38   1.0000      -0.996651       -27.1203
  39   1.0000      -0.915442       -24.9105
  40   1.0000      -0.819510       -22.3000
  41   1.0000      -0.796942       -21.6859
  42   1.0000      -0.765622       -20.8336
  43   1.0000      -0.724562       -19.7163
  44   1.0000      -0.678653       -18.4671
  45   1.0000      -0.646310       -17.5870
  46   1.0000      -0.641725       -17.4622
  47   1.0000      -0.610713       -16.6184
  48   1.0000      -0.608104       -16.5473
  49   1.0000      -0.599136       -16.3033
  50   1.0000      -0.589401       -16.0384
  51   1.0000      -0.585763       -15.9394
  52   1.0000      -0.583277       -15.8718
  53   1.0000      -0.569968       -15.5096
  54   1.0000      -0.569676       -15.5017
  55   1.0000      -0.562368       -15.3028
  56   1.0000      -0.553296       -15.0559
  57   1.0000      -0.548746       -14.9321
  58   1.0000      -0.546151       -14.8615
  59   1.0000      -0.537146       -14.6165
  60   1.0000      -0.521485       -14.1903
  61   1.0000      -0.496915       -13.5217
  62   1.0000      -0.477196       -12.9852
  63   1.0000      -0.475903       -12.9500
  64   1.0000      -0.470622       -12.8063
  65   1.0000      -0.466420       -12.6919
  66   1.0000      -0.460046       -12.5185
  67   1.0000      -0.453282       -12.3344
  68   1.0000      -0.449799       -12.2397
  69   1.0000      -0.446166       -12.1408
  70   1.0000      -0.445301       -12.1173
  71   1.0000      -0.439058       -11.9474
  72   1.0000      -0.437442       -11.9034
  73   1.0000      -0.432313       -11.7638
  74   1.0000      -0.429382       -11.6841
  75   1.0000      -0.426860       -11.6154
  76   1.0000      -0.420165       -11.4333
  77   1.0000      -0.419081       -11.4038
  78   1.0000      -0.417540       -11.3618
  79   1.0000      -0.415247       -11.2994
  80   1.0000      -0.411453       -11.1962
  81   1.0000      -0.408998       -11.1294
  82   1.0000      -0.405530       -11.0350
  83   1.0000      -0.402779       -10.9602
  84   1.0000      -0.399729       -10.8772
  85   1.0000      -0.389892       -10.6095
  86   1.0000      -0.382669       -10.4130
  87   1.0000      -0.376623       -10.2484
  88   1.0000      -0.373934       -10.1753
  89   1.0000      -0.362713        -9.8699
  90   1.0000      -0.348334        -9.4787
  91   1.0000      -0.317589        -8.6420
  92   1.0000      -0.231942        -6.3115
  93   1.0000      -0.217506        -5.9187
  94   1.0000      -0.215365        -5.8604
  95   0.0000      -0.109926        -2.9912
  96   0.0000      -0.010452        -0.2844
  97   0.0000      -0.005220        -0.1420
  98   0.0000       0.017334         0.4717
  99   0.0000       0.043836         1.1928

MULLIKEN ATOMIC CHARGES AND SPIN POPULATIONS
--------------------------------------------
   0 C :    0.167401   -0.000002
   1 O :   -0.478620    0.000016
   2 O :   -0.491949    0.000003
   3 C :    0.301976   -0.000024
   4 C :    0.276401    0.000013
   5 C :    0.297409    0.000190
   6 C :    0.288059    0.000749
   7 C :    0.268257    0.009128
   8 C :    0.370399   -0.001732
   9 C :    0.225319    0.834628
  10 F :   -0.195817    0.000001
  11 F :   -0.201141    0.000001
  12 F :   -0.164516    0.000001
  13 F :   -0.173610   -0.000002
  14 F :   -0.157637   -0.000010
  15 F :   -0.155990   -0.000030
  16 F :   -0.152234   -0.000035
  17 F :   -0.152339   -0.000032
  18 F :   -0.154397    0.000250
  19 F :   -0.152284    0.000046
  20 F :   -0.161744    0.030047
  21 F :   -0.150666   -0.001030
  22 F :   -0.125513    0.065114
  23 F :   -0.126764    0.062710
Sum of atomic charges         :   -1.0000000

LOEWDIN ATOMIC CHARGES AND SPIN POPULATIONS
-------------------------------------------
   0 C :   -0.691113    0.000001
   1 O :   -0.047775    0.000014
   2 O :   -0.053759    0.000003
   3 C :   -0.439186   -0.000003
   4 C :   -0.457400   -0.000038
   5 C :   -0.458511   -0.000081
   6 C :   -0.458492   -0.000547
   7 C :   -0.459135    0.003824
   8 C :   -0.491367    0.075363
   9 C :   -0.388600    0.707910
  10 F :    0.163103    0.000001
  11 F :    0.155458    0.000001
  12 F :    0.210582    0.000003
  13 F :    0.202987   -0.000000
  14 F :    0.216444    0.000020
  15 F :    0.218463    0.000009
  16 F :    0.222534    0.000073
  17 F :    0.222266    0.000063
  18 F :    0.224798    0.002160
  19 F :    0.223135    0.001143
  20 F :    0.197892    0.031373
  21 F :    0.222652   -0.000552
  22 F :    0.232782    0.091319
  23 F :    0.232244    0.087943

  Mayer bond orders larger than 0.100000
B(  0-C ,  1-O ) :   1.8740 B(  0-C ,  2-O ) :   1.8469 B(  0-C ,  3-C ) :   0.8523
B(  3-C ,  4-C ) :   0.9383 B(  3-C , 10-F ) :   1.0512 B(  3-C , 11-F ) :   1.0401
B(  4-C ,  5-C ) :   0.9424 B(  4-C , 12-F ) :   1.0777 B(  4-C , 13-F ) :   1.0677
B(  5-C ,  6-C ) :   0.9519 B(  5-C , 14-F ) :   1.0838 B(  5-C , 15-F ) :   1.0932
B(  6-C ,  7-C ) :   0.9502 B(  6-C , 16-F ) :   1.0932 B(  6-C , 17-F ) :   1.0933
B(  7-C ,  8-C ) :   0.9470 B(  7-C , 18-F ) :   1.0867 B(  7-C , 19-F ) :   1.0936
B(  8-C ,  9-C ) :   0.9164 B(  8-C , 20-F ) :   1.0702 B(  8-C , 21-F ) :   1.1091
B(  9-C , 22-F ) :   1.1535 B(  9-C , 23-F ) :   1.1602

Dispersion correction           -0.029331307
FINAL SINGLE POINT ENERGY     -1853.935933821948

DIPOLE MOMENT
-------------
                                X             Y             Z
Electronic contribution:    -17.33225      -0.45517       1.67333
Nuclear contribution   :      8.62078       0.14372      -0.95639
                        -----------------------------------------
Total Dipole Moment    :     -8.71146      -0.31144       0.71694
                        -----------------------------------------
Magnitude (a.u.)       :      8.74646
Magnitude (Debye)      :     22.23174

Rotational constants in cm-1:     0.022643     0.004049     0.004017
Rotational constants in MHz :   678.810059   121.375589   120.429206

                             ****ORCA TERMINATED NORMALLY****
TOTAL RUN TIME: 0 days 0 hours 22 minutes 23 seconds 64 msec
