                         Program Version 6.0.1  -  RELEASE   -
|  1> !TPSSh def2-TZVP freq d3 TightSCF SlowConv defgrid2
|  2>
|  3> %pal
|  4> nprocs 20
|  5> end
|  6>
|  7> %scf
|  8> MaxIter 1500
|  9> end
| 10>
| 11> %maxcore 8000
| 12>
| 13> !CPCM
| 14> %cpcm smd true
| 15> SMDsolvent "ACETONITRILE"
| 16> end
| 17>
| 18> * xyz -1 2
| 19> 6        4.830367000      0.084452000     -0.361284000
| 20> 8        5.424081000     -0.776104000     -1.029031000
| 21> 8        5.078041000      1.283708000     -0.138023000
| 22> 6        3.507588000     -0.408846000      0.354522000
| 23> 6        2.231359000      0.293319000     -0.185240000
| 24> 6        0.880454000     -0.421509000      0.152845000
| 25> 6       -0.378246000      0.499734000     -0.004816000
| 26> 6       -1.726945000     -0.290864000     -0.100264000
| 27> 6       -2.998910000      0.558680000      0.209974000
| 28> 6       -4.274131000     -0.185152000     -0.163653000
| 29> 9        3.312341000     -1.757101000      0.214466000
| 30> 9        3.580349000     -0.169540000      1.703311000
| 31> 9        2.164492000      1.556380000      0.300192000
| 32> 9        2.327050000      0.363528000     -1.539903000
| 33> 9        0.731574000     -1.492681000     -0.660664000
| 34> 9        0.916888000     -0.857014000      1.432395000
| 35> 9       -0.436558000      1.334069000      1.056408000
| 36> 9       -0.249385000      1.241009000     -1.127646000
| 37> 9       -1.710030000     -1.322989000      0.772933000
| 38> 9       -1.842430000     -0.789799000     -1.351706000
| 39> 9       -2.909866000      1.744643000     -0.460724000
| 40> 9       -3.042580000      0.823423000      1.532186000
| 41> 9       -5.341278000      0.163775000      0.537566000
| 42> 9       -4.539707000     -0.237189000     -1.459431000
| 43> *
| 44>
| 45>                          ****END OF INPUT****

CARTESIAN COORDINATES (ANGSTROEM)
---------------------------------
  C      4.830367    0.084452   -0.361284
  O      5.424081   -0.776104   -1.029031
  O      5.078041    1.283708   -0.138023
  C      3.507588   -0.408846    0.354522
  C      2.231359    0.293319   -0.185240
  C      0.880454   -0.421509    0.152845
  C     -0.378246    0.499734   -0.004816
  C     -1.726945   -0.290864   -0.100264
  C     -2.998910    0.558680    0.209974
  C     -4.274131   -0.185152   -0.163653
  F      3.312341   -1.757101    0.214466
  F      3.580349   -0.169540    1.703311
  F      2.164492    1.556380    0.300192
  F      2.327050    0.363528   -1.539903
  F      0.731574   -1.492681   -0.660664
  F      0.916888   -0.857014    1.432395
  F     -0.436558    1.334069    1.056408
  F     -0.249385    1.241009   -1.127646
  F     -1.710030   -1.322989    0.772933
  F     -1.842430   -0.789799   -1.351706
  F     -2.909866    1.744643   -0.460724
  F     -3.042580    0.823423    1.532186
  F     -5.341278    0.163775    0.537566
  F     -4.539707   -0.237189   -1.459431

 Total Charge           Charge          ....   -1
 Multiplicity           Mult            ....    2
 Number of Electrons    NEL             ....  191
 Basis Dimension        Dim             ....  744

ORBITAL ENERGIES
----------------
                 SPIN UP ORBITALS
  NO   OCC          E(Eh)            E(eV)
   0   1.0000     -24.663031      -671.1152
   1   1.0000     -24.662850      -671.1103
   2   1.0000     -24.656277      -670.9314
   3   1.0000     -24.655648      -670.9143
   4   1.0000     -24.654290      -670.8773
   5   1.0000     -24.654226      -670.8756
   6   1.0000     -24.653089      -670.8447
   7   1.0000     -24.650305      -670.7689
   8   1.0000     -24.649838      -670.7562
   9   1.0000     -24.649155      -670.7376
  10   1.0000     -24.638510      -670.4479
  11   1.0000     -24.638398      -670.4449
  12   1.0000     -24.614124      -669.7844
  13   1.0000     -24.613795      -669.7754
  14   1.0000     -18.988592      -516.7058
  15   1.0000     -18.986615      -516.6521
  16   1.0000     -10.338375      -281.3215
  17   1.0000     -10.338263      -281.3184
  18   1.0000     -10.338159      -281.3156
  19   1.0000     -10.331844      -281.1438
  20   1.0000     -10.316627      -280.7297
  21   1.0000     -10.313430      -280.6427
  22   1.0000     -10.279073      -279.7078
  23   1.0000     -10.189797      -277.2785
  24   1.0000      -1.298519       -35.3345
  25   1.0000      -1.290078       -35.1048
  26   1.0000      -1.278809       -34.7982
  27   1.0000      -1.270678       -34.5769
  28   1.0000      -1.268002       -34.5041
  29   1.0000      -1.259522       -34.2733
  30   1.0000      -1.232954       -33.5504
  31   1.0000      -1.231420       -33.5086
  32   1.0000      -1.228744       -33.4358
  33   1.0000      -1.220693       -33.2167
  34   1.0000      -1.214746       -33.0549
  35   1.0000      -1.214348       -33.0441
  36   1.0000      -1.203653       -32.7531
  37   1.0000      -1.175479       -31.9864
  38   1.0000      -0.996927       -27.1278
  39   1.0000      -0.915707       -24.9177
  40   1.0000      -0.821009       -22.3408
  41   1.0000      -0.800131       -21.7727
  42   1.0000      -0.769586       -20.9415
  43   1.0000      -0.729060       -19.8387
  44   1.0000      -0.683064       -18.5871
  45   1.0000      -0.651204       -17.7202
  46   1.0000      -0.641718       -17.4620
  47   1.0000      -0.611767       -16.6470
  48   1.0000      -0.610023       -16.5996
  49   1.0000      -0.600645       -16.3444
  50   1.0000      -0.591358       -16.0917
  51   1.0000      -0.588271       -16.0077
  52   1.0000      -0.584844       -15.9144
  53   1.0000      -0.572804       -15.5868
  54   1.0000      -0.570696       -15.5294
  55   1.0000      -0.564183       -15.3522
  56   1.0000      -0.554272       -15.0825
  57   1.0000      -0.550140       -14.9701
  58   1.0000      -0.546730       -14.8773
  59   1.0000      -0.537592       -14.6286
  60   1.0000      -0.526473       -14.3261
  61   1.0000      -0.521530       -14.1916
  62   1.0000      -0.478096       -13.0097
  63   1.0000      -0.476638       -12.9700
  64   1.0000      -0.471962       -12.8427
  65   1.0000      -0.466948       -12.7063
  66   1.0000      -0.460261       -12.5243
  67   1.0000      -0.456036       -12.4094
  68   1.0000      -0.453711       -12.3461
  69   1.0000      -0.449240       -12.2244
  70   1.0000      -0.445663       -12.1271
  71   1.0000      -0.443289       -12.0625
  72   1.0000      -0.437865       -11.9149
  73   1.0000      -0.435876       -11.8608
  74   1.0000      -0.431184       -11.7331
  75   1.0000      -0.427307       -11.6276
  76   1.0000      -0.422188       -11.4883
  77   1.0000      -0.420022       -11.4294
  78   1.0000      -0.418538       -11.3890
  79   1.0000      -0.415514       -11.3067
  80   1.0000      -0.411618       -11.2007
  81   1.0000      -0.409570       -11.1450
  82   1.0000      -0.405755       -11.0411
  83   1.0000      -0.402814       -10.9611
  84   1.0000      -0.400207       -10.8902
  85   1.0000      -0.390383       -10.6228
  86   1.0000      -0.382750       -10.4152
  87   1.0000      -0.377626       -10.2757
  88   1.0000      -0.374216       -10.1829
  89   1.0000      -0.362964        -9.8768
  90   1.0000      -0.349973        -9.5233
  91   1.0000      -0.318277        -8.6607
  92   1.0000      -0.248367        -6.7584
  93   1.0000      -0.232191        -6.3182
  94   1.0000      -0.217762        -5.9256
  95   1.0000      -0.215606        -5.8669
  96   0.0000      -0.014936        -0.4064
  97   0.0000      -0.006458        -0.1757
  98   0.0000       0.014759         0.4016
  99   0.0000       0.041111         1.1187
 100   0.0000       0.045864         1.2480

                 SPIN DOWN ORBITALS
  NO   OCC          E(Eh)            E(eV)
   0   1.0000     -24.659357      -671.0152
   1   1.0000     -24.659010      -671.0058
   2   1.0000     -24.656196      -670.9292
   3   1.0000     -24.655604      -670.9131
   4   1.0000     -24.654288      -670.8773
   5   1.0000     -24.654224      -670.8756
   6   1.0000     -24.653131      -670.8458
   7   1.0000     -24.649838      -670.7562
   8   1.0000     -24.649155      -670.7376
   9   1.0000     -24.648820      -670.7285
  10   1.0000     -24.638510      -670.4479
  11   1.0000     -24.638398      -670.4449
  12   1.0000     -24.614124      -669.7844
  13   1.0000     -24.613795      -669.7754
  14   1.0000     -18.988591      -516.7058
  15   1.0000     -18.986615      -516.6521
  16   1.0000     -10.338385      -281.3218
  17   1.0000     -10.338258      -281.3183
  18   1.0000     -10.337342      -281.2934
  19   1.0000     -10.331848      -281.1439
  20   1.0000     -10.316628      -280.7297
  21   1.0000     -10.297249      -280.2024
  22   1.0000     -10.279073      -279.7078
  23   1.0000     -10.189797      -277.2785
  24   1.0000      -1.297343       -35.3025
  25   1.0000      -1.285534       -34.9812
  26   1.0000      -1.276943       -34.7474
  27   1.0000      -1.270643       -34.5760
  28   1.0000      -1.265979       -34.4490
  29   1.0000      -1.259518       -34.2732
  30   1.0000      -1.231513       -33.5112
  31   1.0000      -1.230184       -33.4750
  32   1.0000      -1.225377       -33.3442
  33   1.0000      -1.219984       -33.1975
  34   1.0000      -1.214707       -33.0539
  35   1.0000      -1.212669       -32.9984
  36   1.0000      -1.203653       -32.7531
  37   1.0000      -1.175479       -31.9864
  38   1.0000      -0.996927       -27.1278
  39   1.0000      -0.915707       -24.9177
  40   1.0000      -0.819362       -22.2960
  41   1.0000      -0.796807       -21.6822
  42   1.0000      -0.765522       -20.8309
  43   1.0000      -0.724481       -19.7141
  44   1.0000      -0.678565       -18.4647
  45   1.0000      -0.646159       -17.5829
  46   1.0000      -0.641667       -17.4607
  47   1.0000      -0.610567       -16.6144
  48   1.0000      -0.607983       -16.5441
  49   1.0000      -0.599000       -16.2996
  50   1.0000      -0.589271       -16.0349
  51   1.0000      -0.585654       -15.9365
  52   1.0000      -0.583164       -15.8687
  53   1.0000      -0.569849       -15.5064
  54   1.0000      -0.569543       -15.4980
  55   1.0000      -0.562251       -15.2996
  56   1.0000      -0.553239       -15.0544
  57   1.0000      -0.548633       -14.9291
  58   1.0000      -0.546072       -14.8594
  59   1.0000      -0.537201       -14.6180
  60   1.0000      -0.521530       -14.1915
  61   1.0000      -0.496686       -13.5155
  62   1.0000      -0.477050       -12.9812
  63   1.0000      -0.475779       -12.9466
  64   1.0000      -0.470466       -12.8020
  65   1.0000      -0.466296       -12.6886
  66   1.0000      -0.459922       -12.5151
  67   1.0000      -0.453169       -12.3313
  68   1.0000      -0.449649       -12.2356
  69   1.0000      -0.446040       -12.1374
  70   1.0000      -0.445219       -12.1150
  71   1.0000      -0.438951       -11.9445
  72   1.0000      -0.437364       -11.9013
  73   1.0000      -0.432323       -11.7641
  74   1.0000      -0.429268       -11.6810
  75   1.0000      -0.426791       -11.6136
  76   1.0000      -0.420000       -11.4288
  77   1.0000      -0.418950       -11.4002
  78   1.0000      -0.417377       -11.3574
  79   1.0000      -0.415139       -11.2965
  80   1.0000      -0.411322       -11.1926
  81   1.0000      -0.408919       -11.1273
  82   1.0000      -0.405471       -11.0334
  83   1.0000      -0.402756       -10.9595
  84   1.0000      -0.399672       -10.8756
  85   1.0000      -0.389925       -10.6104
  86   1.0000      -0.382747       -10.4151
  87   1.0000      -0.376630       -10.2486
  88   1.0000      -0.374084       -10.1793
  89   1.0000      -0.362958        -9.8766
  90   1.0000      -0.348273        -9.4770
  91   1.0000      -0.317521        -8.6402
  92   1.0000      -0.232191        -6.3182
  93   1.0000      -0.217757        -5.9255
  94   1.0000      -0.215605        -5.8669
  95   0.0000      -0.109628        -2.9831
  96   0.0000      -0.010362        -0.2820
  97   0.0000      -0.005101        -0.1388
  98   0.0000       0.017388         0.4731
  99   0.0000       0.043854         1.1933

MULLIKEN ATOMIC CHARGES AND SPIN POPULATIONS
--------------------------------------------
   0 C :    0.166428   -0.000002
   1 O :   -0.478283    0.000016
   2 O :   -0.491719    0.000003
   3 C :    0.300666   -0.000024
   4 C :    0.278840    0.000013
   5 C :    0.297529    0.000189
   6 C :    0.286892    0.000749
   7 C :    0.269988    0.009044
   8 C :    0.370844   -0.001900
   9 C :    0.225474    0.834994
  10 F :   -0.195816    0.000001
  11 F :   -0.201263    0.000001
  12 F :   -0.164639    0.000001
  13 F :   -0.173807   -0.000002
  14 F :   -0.157653   -0.000010
  15 F :   -0.156080   -0.000030
  16 F :   -0.152290   -0.000035
  17 F :   -0.152345   -0.000032
  18 F :   -0.154579    0.000255
  19 F :   -0.152584    0.000052
  20 F :   -0.161893    0.030020
  21 F :   -0.150835   -0.001027
  22 F :   -0.125758    0.065071
  23 F :   -0.127117    0.062653
Sum of atomic charges         :   -1.0000000

LOEWDIN ATOMIC CHARGES AND SPIN POPULATIONS
-------------------------------------------
   0 C :   -0.691435    0.000001
   1 O :   -0.047733    0.000013
   2 O :   -0.053794    0.000003
   3 C :   -0.439169   -0.000003
   4 C :   -0.457151   -0.000038
   5 C :   -0.458424   -0.000081
   6 C :   -0.458519   -0.000546
   7 C :   -0.458865    0.003814
   8 C :   -0.491227    0.075343
   9 C :   -0.388283    0.708028
  10 F :    0.163143    0.000001
  11 F :    0.155396    0.000001
  12 F :    0.210612    0.000003
  13 F :    0.202936   -0.000000
  14 F :    0.216409    0.000020
  15 F :    0.218460    0.000009
  16 F :    0.222509    0.000073
  17 F :    0.222210    0.000063
  18 F :    0.224764    0.002151
  19 F :    0.223083    0.001140
  20 F :    0.197790    0.031352
  21 F :    0.222517   -0.000553
  22 F :    0.232645    0.091311
  23 F :    0.232126    0.087895

  Mayer bond orders larger than 0.100000
B(  0-C ,  1-O ) :   1.8746 B(  0-C ,  2-O ) :   1.8472 B(  0-C ,  3-C ) :   0.8521
B(  3-C ,  4-C ) :   0.9382 B(  3-C , 10-F ) :   1.0516 B(  3-C , 11-F ) :   1.0403
B(  4-C ,  5-C ) :   0.9424 B(  4-C , 12-F ) :   1.0773 B(  4-C , 13-F ) :   1.0672
B(  5-C ,  6-C ) :   0.9520 B(  5-C , 14-F ) :   1.0839 B(  5-C , 15-F ) :   1.0933
B(  6-C ,  7-C ) :   0.9503 B(  6-C , 16-F ) :   1.0933 B(  6-C , 17-F ) :   1.0935
B(  7-C ,  8-C ) :   0.9469 B(  7-C , 18-F ) :   1.0865 B(  7-C , 19-F ) :   1.0928
B(  8-C ,  9-C ) :   0.9158 B(  8-C , 20-F ) :   1.0704 B(  8-C , 21-F ) :   1.1090
B(  9-C , 22-F ) :   1.1529 B(  9-C , 23-F ) :   1.1601

Dispersion correction           -0.029331307
FINAL SINGLE POINT ENERGY     -1853.936149116960

DIPOLE MOMENT
-------------

Method             : SCF
Type of density    : Electron Density
Multiplicity       :   2
Irrep              :   0
Energy             : -1853.9068178094855739 Eh
Relativity type    :
Basis              : AO
                                X                 Y                 Z
Electronic contribution:    -17.336259389      -0.457549337       1.672521320
Nuclear contribution   :      8.620784454       0.143725747      -0.956386034
                        -----------------------------------------
Total Dipole Moment    :     -8.715474935      -0.313823590       0.716135286
                        -----------------------------------------
Magnitude (a.u.)       :      8.750476463
Magnitude (Debye)      :     22.241943574

VIBRATIONAL FREQUENCIES
-----------------------

Scaling factor for frequencies =  1.000000000  (already applied!)

     0:       0.00 cm**-1
     1:       0.00 cm**-1
     2:       0.00 cm**-1
     3:       0.00 cm**-1
     4:       0.00 cm**-1
     5:       0.00 cm**-1
     6:      30.38 cm**-1
     7:      32.43 cm**-1
     8:      38.92 cm**-1
     9:      47.58 cm**-1
    10:      51.84 cm**-1
    11:      62.69 cm**-1
    12:      67.04 cm**-1
    13:      70.09 cm**-1
    14:     114.43 cm**-1
    15:     133.02 cm**-1
    16:     158.14 cm**-1
    17:     185.55 cm**-1
    18:     194.74 cm**-1
    19:     200.79 cm**-1
    20:     207.24 cm**-1
    21:     223.52 cm**-1
    22:     232.22 cm**-1
    23:     243.04 cm**-1
    24:     250.66 cm**-1
    25:     253.66 cm**-1
    26:     290.69 cm**-1
    27:     300.79 cm**-1
    28:     308.67 cm**-1
    29:     334.62 cm**-1
    30:     343.38 cm**-1
    31:     356.34 cm**-1
    32:     359.64 cm**-1
    33:     366.29 cm**-1
    34:     370.12 cm**-1
    35:     409.96 cm**-1
    36:     451.58 cm**-1
    37:     498.28 cm**-1
    38:     524.34 cm**-1
    39:     535.37 cm**-1
    40:     548.52 cm**-1
    41:     565.30 cm**-1
    42:     570.45 cm**-1
    43:     592.70 cm**-1
    44:     627.02 cm**-1
    45:     646.14 cm**-1
    46:     668.35 cm**-1
    47:     706.43 cm**-1
    48:     735.00 cm**-1
    49:     754.87 cm**-1
    50:     781.81 cm**-1
    51:     857.68 cm**-1
    52:     989.22 cm**-1
    53:    1054.18 cm**-1
    54:    1073.24 cm**-1
    55:    1084.46 cm**-1
    56:    1101.63 cm**-1
    57:    1115.09 cm**-1
    58:    1122.95 cm**-1
    59:    1129.54 cm**-1
    60:    1137.11 cm**-1
    61:    1144.97 cm**-1
    62:    1154.35 cm**-1
    63:    1177.34 cm**-1
    64:    1207.43 cm**-1
    65:    1232.40 cm**-1
    66:    1242.44 cm**-1
    67:    1263.76 cm**-1
    68:    1296.85 cm**-1
    69:    1340.62 cm**-1
    70:    1359.50 cm**-1
    71:    1724.69 cm**-1

IR SPECTRUM
-----------

 Mode   freq       eps      Int      T**2         TX        TY        TZ
       cm**-1   L/(mol*cm) km/mol    a.u.
----------------------------------------------------------------------------
  6:     30.38   0.000404    2.04  0.004148  ( 0.015253  0.008340  0.062014)
  7:     32.43   0.000158    0.80  0.001524  ( 0.011479  0.005928  0.036839)
  8:     38.92   0.000716    3.62  0.005741  ( 0.002754  0.074293  0.014641)
  9:     47.58   0.000004    0.02  0.000023  ( 0.000357 -0.004288 -0.002120)
 10:     51.84   0.000001    0.01  0.000009  ( 0.000432 -0.001139 -0.002672)
 11:     62.69   0.000122    0.62  0.000606  (-0.006109  0.016886 -0.016840)
 12:     67.04   0.000102    0.52  0.000477  (-0.005619 -0.006561 -0.020048)
 13:     70.09   0.000498    2.52  0.002217  ( 0.017019 -0.032379  0.029644)
 14:    114.43   0.000739    3.74  0.002017  ( 0.032641 -0.011653  0.028554)
 15:    133.02   0.000520    2.63  0.001221  ( 0.034853 -0.001983  0.001400)
 16:    158.14   0.000205    1.04  0.000404  (-0.016855  0.008906 -0.006401)
 17:    185.55   0.003192   16.13  0.005368  ( 0.001829  0.005987  0.073001)
 18:    194.74   0.000167    0.84  0.000268  (-0.015750  0.003467 -0.002736)
 19:    200.79   0.000126    0.64  0.000197  (-0.001455 -0.013555 -0.003278)
 20:    207.24   0.000391    1.97  0.000588  (-0.002444  0.019516 -0.014184)
 21:    223.52   0.000216    1.09  0.000302  (-0.009804 -0.005585 -0.013199)
 22:    232.22   0.000046    0.23  0.000062  ( 0.007693 -0.001581  0.000140)
 23:    243.04   0.000121    0.61  0.000156  ( 0.005737 -0.001298 -0.011000)
 24:    250.66   0.000009    0.05  0.000011  (-0.003310 -0.000193 -0.000510)
 25:    253.66   0.000230    1.16  0.000283  (-0.004642  0.002002 -0.016033)
 26:    290.69   0.001722    8.70  0.001848  ( 0.042141 -0.007196 -0.004539)
 27:    300.79   0.000293    1.48  0.000304  (-0.016783  0.001974  0.004255)
 28:    308.67   0.000234    1.18  0.000237  ( 0.010961 -0.010447  0.002689)
 29:    334.62   0.000038    0.19  0.000035  (-0.005471 -0.000064 -0.002359)
 30:    343.38   0.000688    3.48  0.000625  (-0.019701  0.000108 -0.015394)
 31:    356.34   0.000262    1.33  0.000230  ( 0.013464  0.000939  0.006900)
 32:    359.64   0.000307    1.55  0.000266  (-0.016234  0.001225 -0.001025)
 33:    366.29   0.000012    0.06  0.000010  (-0.003052  0.000986 -0.000097)
 34:    370.12   0.000027    0.14  0.000023  ( 0.004368  0.001149  0.001483)
 35:    409.96   0.000504    2.55  0.000384  (-0.016779  0.009019  0.004588)
 36:    451.58   0.004023   20.33  0.002780  (-0.051217  0.009659 -0.007996)
 37:    498.28   0.001685    8.52  0.001055  ( 0.028790  0.006980  0.013332)
 38:    524.34   0.019584   98.97  0.011655  (-0.104769  0.020824 -0.015661)
 39:    535.37   0.011068   55.93  0.006452  ( 0.066647  0.044712  0.003267)
 40:    548.52   0.001995   10.08  0.001135  (-0.007317  0.027353 -0.018260)
 41:    565.30   0.003389   17.13  0.001871  (-0.037964  0.006096  0.019806)
 42:    570.45   0.002112   10.67  0.001156  ( 0.031039 -0.013249 -0.004074)
 43:    592.70   0.002070   10.46  0.001090  (-0.031150  0.010385 -0.003434)
 44:    627.02   0.000823    4.16  0.000410  (-0.017552 -0.003262 -0.009537)
 45:    646.14   0.041299  208.71  0.019946  (-0.141076 -0.006589 -0.000253)
 46:    668.35   0.000994    5.02  0.000464  (-0.019435 -0.002820  0.008853)
 47:    706.43   0.000605    3.06  0.000267  (-0.014832  0.002071  0.006553)
 48:    735.00   0.004475   22.62  0.001900  (-0.043277 -0.002711  0.004460)
 49:    754.87   0.001002    5.06  0.000414  (-0.002367 -0.019797  0.004095)
 50:    781.81   0.020378  102.98  0.008134  ( 0.067913  0.028686 -0.051950)
 51:    857.68   0.005460   27.59  0.001987  ( 0.043351  0.009082 -0.004978)
 52:    989.22   0.008330   42.10  0.002628  (-0.049232  0.002584 -0.014045)
 53:   1054.18   0.044219  223.47  0.013090  ( 0.020905  0.106877 -0.035075)
 54:   1073.24   0.042832  216.45  0.012454  (-0.014464 -0.073150 -0.083030)
 55:   1084.46   0.015416   77.91  0.004436  (-0.019507 -0.012212  0.062502)
 56:   1101.63   0.018071   91.32  0.005119  ( 0.013077 -0.029563  0.063828)
 57:   1115.09   0.078386  396.13  0.021937  (-0.008593 -0.139761  0.048269)
 58:   1122.95   0.059724  301.82  0.016597  (-0.009952  0.126854  0.020154)
 59:   1129.54   0.019809  100.11  0.005473  (-0.012020 -0.068611 -0.024914)
 60:   1137.11   0.044137  223.05  0.012113  ( 0.007407 -0.002023 -0.109790)
 61:   1144.97   0.179030  904.75  0.048795  ( 0.017820  0.021260  0.219147)
 62:   1154.35   0.002992   15.12  0.000809  (-0.005776 -0.018041 -0.021214)
 63:   1177.34   0.009021   45.59  0.002391  (-0.025012  0.007737  0.041300)
 64:   1207.43   0.013531   68.38  0.003497  ( 0.007881 -0.032322 -0.048889)
 65:   1232.40   0.037934  191.70  0.009606  (-0.033098  0.001422  0.092239)
 66:   1242.44   0.028886  145.98  0.007255  ( 0.022039 -0.017408 -0.080415)
 67:   1263.76   0.004169   21.07  0.001029  ( 0.020623 -0.011645 -0.021647)
 68:   1296.85   0.008245   41.67  0.001984  ( 0.030076  0.029807 -0.013822)
 69:   1340.62   0.042552  215.04  0.009905  ( 0.097862 -0.016924 -0.006462)
 70:   1359.50   0.023724  119.89  0.005446  ( 0.063125  0.029285 -0.024562)
 71:   1724.69   0.156959  793.20  0.028400  ( 0.027808 -0.152319 -0.066524)

--------------------------
THERMOCHEMISTRY AT 298.15K
--------------------------

Temperature         ...   298.15 K
Pressure            ...     1.00 atm
Total Mass          ...   394.06 AMU
Quasi RRHO          ...     True
Cut-Off Frequency   ...     1.00 cm^-1

Throughout the following assumptions are being made:
  (1) The electronic state is orbitally nondegenerate
      but the spin degeneracy is treated
  (2) There are no thermally accessible electronically excited states
  (3) Hindered rotations indicated by low frequency modes are not
      treated as such but are treated as vibrations and this may
      cause some error
  (4) All equations used are the standard statistical mechanics
      equations for an ideal gas
  (5) All vibrations are strictly harmonic

freq.      30.38  E(vib)   ...       0.55
freq.      32.43  E(vib)   ...       0.55
freq.      38.92  E(vib)   ...       0.54
freq.      47.58  E(vib)   ...       0.53
freq.      51.84  E(vib)   ...       0.52
freq.      62.69  E(vib)   ...       0.51
freq.      67.04  E(vib)   ...       0.50
freq.      70.09  E(vib)   ...       0.50
freq.     114.43  E(vib)   ...       0.44
freq.     133.02  E(vib)   ...       0.42
freq.     158.14  E(vib)   ...       0.39
freq.     185.55  E(vib)   ...       0.37
freq.     194.74  E(vib)   ...       0.36
freq.     200.79  E(vib)   ...       0.35
freq.     207.24  E(vib)   ...       0.34
freq.     223.52  E(vib)   ...       0.33
freq.     232.22  E(vib)   ...       0.32
freq.     243.04  E(vib)   ...       0.31
freq.     250.66  E(vib)   ...       0.30
freq.     253.66  E(vib)   ...       0.30
freq.     290.69  E(vib)   ...       0.27
freq.     300.79  E(vib)   ...       0.26
freq.     308.67  E(vib)   ...       0.26
freq.     334.62  E(vib)   ...       0.24
freq.     343.38  E(vib)   ...       0.23
freq.     356.34  E(vib)   ...       0.22
freq.     359.64  E(vib)   ...       0.22
freq.     366.29  E(vib)   ...       0.22
freq.     370.12  E(vib)   ...       0.21
freq.     409.96  E(vib)   ...       0.19
freq.     451.58  E(vib)   ...       0.16
freq.     498.28  E(vib)   ...       0.14
freq.     524.34  E(vib)   ...       0.13
freq.     535.37  E(vib)   ...       0.13
freq.     548.52  E(vib)   ...       0.12
freq.     565.30  E(vib)   ...       0.11
freq.     570.45  E(vib)   ...       0.11
freq.     592.70  E(vib)   ...       0.10
freq.     627.02  E(vib)   ...       0.09
freq.     646.14  E(vib)   ...       0.09
freq.     668.35  E(vib)   ...       0.08
freq.     706.43  E(vib)   ...       0.07
freq.     735.00  E(vib)   ...       0.06
freq.     754.87  E(vib)   ...       0.06
freq.     781.81  E(vib)   ...       0.05
freq.     857.68  E(vib)   ...       0.04
freq.     989.22  E(vib)   ...       0.02
freq.    1054.18  E(vib)   ...       0.02
freq.    1073.24  E(vib)   ...       0.02
freq.    1084.46  E(vib)   ...       0.02
freq.    1101.63  E(vib)   ...       0.02
freq.    1115.09  E(vib)   ...       0.01
freq.    1122.95  E(vib)   ...       0.01
freq.    1129.54  E(vib)   ...       0.01
freq.    1137.11  E(vib)   ...       0.01
freq.    1144.97  E(vib)   ...       0.01
freq.    1154.35  E(vib)   ...       0.01
freq.    1177.34  E(vib)   ...       0.01
freq.    1207.43  E(vib)   ...       0.01
freq.    1232.40  E(vib)   ...       0.01
freq.    1242.44  E(vib)   ...       0.01
freq.    1263.76  E(vib)   ...       0.01
freq.    1296.85  E(vib)   ...       0.01
freq.    1340.62  E(vib)   ...       0.01
freq.    1359.50  E(vib)   ...       0.01
freq.    1724.69  E(vib)   ...       0.00

------------
INNER ENERGY
------------

The inner energy is: U= E(el) + E(ZPE) + E(vib) + E(rot) + E(trans)
    E(el)   - is the total energy from the electronic structure calculation
              = E(kin-el) + E(nuc-el) + E(el-el) + E(nuc-nuc)
    E(ZPE)  - the the zero temperature vibrational energy from the frequency calculation
    E(vib)  - the the finite temperature correction to E(ZPE) due to population
              of excited vibrational states
    E(rot)  - is the rotational thermal energy
    E(trans)- is the translational thermal energy

Summary of contributions to the inner energy U:
Electronic energy                ...  -1853.93614912 Eh
Zero point energy                ...      0.09170552 Eh      57.55 kcal/mol
Thermal vibrational correction   ...      0.01999705 Eh      12.55 kcal/mol
Thermal rotational correction    ...      0.00141627 Eh       0.89 kcal/mol
Thermal translational correction ...      0.00141627 Eh       0.89 kcal/mol
-----------------------------------------------------------------------
Total thermal energy                  -1853.82161400 Eh

Summary of corrections to the electronic energy:
(perhaps to be used in another calculation)
Total thermal correction                  0.02282959 Eh      14.33 kcal/mol
Non-thermal (ZPE) correction              0.09170552 Eh      57.55 kcal/mol
-----------------------------------------------------------------------
Total correction                          0.11453512 Eh      71.87 kcal/mol

--------
ENTHALPY
--------

The enthalpy is H = U + kB*T
                kB is Boltzmann's constant
Total thermal energy              ...  -1853.82161400 Eh
Thermal Enthalpy correction       ...      0.00094421 Eh       0.59 kcal/mol
-----------------------------------------------------------------------
Total Enthalpy                    ...  -1853.82066979 Eh

Note: Only C1 symmetry has been detected, increase convergence thresholds
      if your molecule has a higher symmetry. Symmetry factor of 1.0 is
      used for the rotational entropy correction.

Note: Rotational entropy computed according to Herzberg
Infrared and Raman Spectra, Chapter V,1, Van Nostrand Reinhold, 1945
Point Group:  C1, Symmetry Number:   1
Rotational constants in cm-1:     0.022643     0.004049     0.004017

Vibrational entropy computed according to the QRRHO of S. Grimme
Chem.Eur.J. 2012 18 9955 using a reference frequency of 100.0 cm-1

-------
ENTROPY
-------

The entropy contributions are T*S = T*(S(el)+S(vib)+S(rot)+S(trans))
     S(el)   - electronic entropy
     S(vib)  - vibrational entropy
     S(rot)  - rotational entropy
     S(trans)- translational entropy
The entropies will be listed as multiplied by the temperature to get
units of energy

Electronic entropy                ...      0.00065446 Eh      0.41 kcal/mol
Vibrational entropy               ...      0.03587108 Eh     22.51 kcal/mol
Rotational entropy                ...      0.01650459 Eh     10.36 kcal/mol
Translational entropy             ...      0.02081341 Eh     13.06 kcal/mol
-----------------------------------------------------------------------

                             ****ORCA TERMINATED NORMALLY****
TOTAL RUN TIME: 0 days 0 hours 20 minutes 33 seconds 119 msec
