                         Program Version 6.0.1  -  RELEASE   -
|  1> !B3LYP def2-TZVP freq d3 TightSCF SlowConv defgrid2
|  2>
|  3> %pal
|  4> nprocs 20
|  5> end
|  6>
|  7> %scf
|  8> MaxIter 1500
|  9> end
| 10>
| 11> %maxcore 8000
| 12>
| 13> !CPCM
| 14> %cpcm smd true
| 15> SMDsolvent "ACETONITRILE"
| 16> end
| 17>
| 18> * xyz -1 1
| 19> 6        4.820807000      0.136137000     -0.399891000
| 20> 8        5.413770000     -0.713769000     -1.075975000
| 21> 8        5.054547000      1.336432000     -0.186559000
| 22> 6        3.518249000     -0.378268000      0.340528000
| 23> 6        2.221745000      0.290870000     -0.196864000
| 24> 6        0.891585000     -0.452930000      0.168828000
| 25> 6       -0.389352000      0.442213000      0.018234000
| 26> 6       -1.722900000     -0.380570000     -0.043334000
| 27> 6       -2.996695000      0.481932000      0.261195000
| 28> 6       -4.332505000     -0.159238000     -0.237375000
| 29> 9        3.356501000     -1.728856000      0.220323000
| 30> 9        3.601948000     -0.116948000      1.681325000
| 31> 9        2.134319000      1.555026000      0.274372000
| 32> 9        2.299128000      0.345112000     -1.550235000
| 33> 9        0.757088000     -1.533614000     -0.629259000
| 34> 9        0.955363000     -0.870557000      1.450098000
| 35> 9       -0.452914000      1.281103000      1.072409000
| 36> 9       -0.296181000      1.170856000     -1.111986000
| 37> 9       -1.671584000     -1.379818000      0.859670000
| 38> 9       -1.842502000     -0.916923000     -1.274097000
| 39> 9       -2.883918000      1.689106000     -0.327697000
| 40> 9       -3.092747000      0.655070000      1.591839000
| 41> 9       -4.423530000     -1.429355000      0.163646000
| 42> 9       -5.358445000      0.525926000      0.271350000
| 43> 9       -4.410372000     -0.115379000     -1.567001000
| 44> *
| 45>
| 46>                          ****END OF INPUT****

CARTESIAN COORDINATES (ANGSTROEM)
---------------------------------
  C      4.820807    0.136137   -0.399891
  O      5.413770   -0.713769   -1.075975
  O      5.054547    1.336432   -0.186559
  C      3.518249   -0.378268    0.340528
  C      2.221745    0.290870   -0.196864
  C      0.891585   -0.452930    0.168828
  C     -0.389352    0.442213    0.018234
  C     -1.722900   -0.380570   -0.043334
  C     -2.996695    0.481932    0.261195
  C     -4.332505   -0.159238   -0.237375
  F      3.356501   -1.728856    0.220323
  F      3.601948   -0.116948    1.681325
  F      2.134319    1.555026    0.274372
  F      2.299128    0.345112   -1.550235
  F      0.757088   -1.533614   -0.629259
  F      0.955363   -0.870557    1.450098
  F     -0.452914    1.281103    1.072409
  F     -0.296181    1.170856   -1.111986
  F     -1.671584   -1.379818    0.859670
  F     -1.842502   -0.916923   -1.274097
  F     -2.883918    1.689106   -0.327697
  F     -3.092747    0.655070    1.591839
  F     -4.423530   -1.429355    0.163646
  F     -5.358445    0.525926    0.271350
  F     -4.410372   -0.115379   -1.567001

 Total Charge           Charge          ....   -1
 Multiplicity           Mult            ....    1
 Number of Electrons    NEL             ....  200
 Basis Dimension        Dim             ....  775

ORBITAL ENERGIES
----------------

  NO   OCC          E(Eh)            E(eV)
   0   2.0000     -24.744871      -673.3422
   1   2.0000     -24.743600      -673.3076
   2   2.0000     -24.743462      -673.3038
   3   2.0000     -24.743207      -673.2969
   4   2.0000     -24.742987      -673.2909
   5   2.0000     -24.742942      -673.2897
   6   2.0000     -24.742161      -673.2684
   7   2.0000     -24.740190      -673.2148
   8   2.0000     -24.740139      -673.2134
   9   2.0000     -24.734821      -673.0687
  10   2.0000     -24.733928      -673.0444
  11   2.0000     -24.723116      -672.7502
  12   2.0000     -24.723066      -672.7488
  13   2.0000     -24.698248      -672.0735
  14   2.0000     -24.698205      -672.0723
  15   2.0000     -19.061647      -518.6938
  16   2.0000     -19.059747      -518.6421
  17   2.0000     -10.461004      -284.6584
  18   2.0000     -10.407847      -283.2119
  19   2.0000     -10.407022      -283.1895
  20   2.0000     -10.404454      -283.1196
  21   2.0000     -10.397281      -282.9244
  22   2.0000     -10.381532      -282.4959
  23   2.0000     -10.343360      -281.4571
  24   2.0000     -10.254429      -279.0372
  25   2.0000      -1.353633       -36.8342
  26   2.0000      -1.330096       -36.1937
  27   2.0000      -1.315001       -35.7830
  28   2.0000      -1.307325       -35.5741
  29   2.0000      -1.303188       -35.4616
  30   2.0000      -1.291273       -35.1373
  31   2.0000      -1.266921       -34.4747
  32   2.0000      -1.262725       -34.3605
  33   2.0000      -1.260689       -34.3051
  34   2.0000      -1.259871       -34.2828
  35   2.0000      -1.253188       -34.1010
  36   2.0000      -1.249752       -34.0075
  37   2.0000      -1.245452       -33.8905
  38   2.0000      -1.233647       -33.5692
  39   2.0000      -1.204967       -32.7888
  40   2.0000      -1.024797       -27.8862
  41   2.0000      -0.942339       -25.6423
  42   2.0000      -0.846508       -23.0347
  43   2.0000      -0.824684       -22.4408
  44   2.0000      -0.795512       -21.6470
  45   2.0000      -0.757981       -20.6257
  46   2.0000      -0.716628       -19.5004
  47   2.0000      -0.689079       -18.7508
  48   2.0000      -0.670501       -18.2453
  49   2.0000      -0.650823       -17.7098
  50   2.0000      -0.645957       -17.5774
  51   2.0000      -0.638136       -17.3646
  52   2.0000      -0.629474       -17.1289
  53   2.0000      -0.625678       -17.0256
  54   2.0000      -0.623382       -16.9631
  55   2.0000      -0.610803       -16.6208
  56   2.0000      -0.607701       -16.5364
  57   2.0000      -0.603269       -16.4158
  58   2.0000      -0.596238       -16.2244
  59   2.0000      -0.584811       -15.9135
  60   2.0000      -0.581858       -15.8332
  61   2.0000      -0.575877       -15.6704
  62   2.0000      -0.564601       -15.3636
  63   2.0000      -0.550292       -14.9742
  64   2.0000      -0.517237       -14.0747
  65   2.0000      -0.513723       -13.9791
  66   2.0000      -0.508065       -13.8251
  67   2.0000      -0.504140       -13.7183
  68   2.0000      -0.500289       -13.6136
  69   2.0000      -0.496530       -13.5113
  70   2.0000      -0.492315       -13.3966
  71   2.0000      -0.486879       -13.2487
  72   2.0000      -0.482906       -13.1405
  73   2.0000      -0.480441       -13.0735
  74   2.0000      -0.477311       -12.9883
  75   2.0000      -0.470816       -12.8115
  76   2.0000      -0.468505       -12.7487
  77   2.0000      -0.463698       -12.6179
  78   2.0000      -0.459950       -12.5159
  79   2.0000      -0.456160       -12.4127
  80   2.0000      -0.453204       -12.3323
  81   2.0000      -0.451971       -12.2988
  82   2.0000      -0.448795       -12.2123
  83   2.0000      -0.444466       -12.0945
  84   2.0000      -0.443594       -12.0708
  85   2.0000      -0.441099       -12.0029
  86   2.0000      -0.437478       -11.9044
  87   2.0000      -0.434205       -11.8153
  88   2.0000      -0.432525       -11.7696
  89   2.0000      -0.425243       -11.5714
  90   2.0000      -0.415555       -11.3078
  91   2.0000      -0.412200       -11.2165
  92   2.0000      -0.401233       -10.9181
  93   2.0000      -0.399465       -10.8700
  94   2.0000      -0.385123       -10.4797
  95   2.0000      -0.373091       -10.1523
  96   2.0000      -0.342300        -9.3144
  97   2.0000      -0.250669        -6.8210
  98   2.0000      -0.238925        -6.5015
  99   2.0000      -0.237048        -6.4504
 100   0.0000      -0.007912        -0.2153
 101   0.0000       0.005933         0.1614
 102   0.0000       0.026935         0.7329
 103   0.0000       0.053931         1.4675
 104   0.0000       0.057188         1.5562

MULLIKEN ATOMIC CHARGES
-----------------------
   0 C :    0.143107
   1 O :   -0.471793
   2 O :   -0.486195
   3 C :    0.341234
   4 C :    0.318839
   5 C :    0.333849
   6 C :    0.331148
   7 C :    0.313093
   8 C :    0.321996
   9 C :    0.476462
  10 F :   -0.211681
  11 F :   -0.218145
  12 F :   -0.183547
  13 F :   -0.191580
  14 F :   -0.176084
  15 F :   -0.174546
  16 F :   -0.170538
  17 F :   -0.170125
  18 F :   -0.168484
  19 F :   -0.168119
  20 F :   -0.165639
  21 F :   -0.162698
  22 F :   -0.155194
  23 F :   -0.152566
  24 F :   -0.152793
Sum of atomic charges:   -1.0000000

LOEWDIN ATOMIC CHARGES
----------------------
   0 C :   -0.693346
   1 O :   -0.049887
   2 O :   -0.056632
   3 C :   -0.436639
   4 C :   -0.453229
   5 C :   -0.454343
   6 C :   -0.455410
   7 C :   -0.456828
   8 C :   -0.463243
   9 C :   -0.664220
  10 F :    0.164168
  11 F :    0.155275
  12 F :    0.209430
  13 F :    0.202408
  14 F :    0.215801
  15 F :    0.217708
  16 F :    0.221907
  17 F :    0.222994
  18 F :    0.224622
  19 F :    0.224001
  20 F :    0.223385
  21 F :    0.224559
  22 F :    0.225163
  23 F :    0.225677
  24 F :    0.226677

  Mayer bond orders larger than 0.100000
B(  0-C ,  1-O ) :   1.8981 B(  0-C ,  2-O ) :   1.8726 B(  0-C ,  3-C ) :   0.8462
B(  3-C ,  4-C ) :   0.9231 B(  3-C , 10-F ) :   1.0436 B(  3-C , 11-F ) :   1.0297
B(  4-C ,  5-C ) :   0.9279 B(  4-C , 12-F ) :   1.0653 B(  4-C , 13-F ) :   1.0552
B(  5-C ,  6-C ) :   0.9385 B(  5-C , 14-F ) :   1.0713 B(  5-C , 15-F ) :   1.0793
B(  6-C ,  7-C ) :   0.9331 B(  6-C , 16-F ) :   1.0759 B(  6-C , 17-F ) :   1.0792
B(  7-C ,  8-C ) :   0.9276 B(  7-C , 18-F ) :   1.0829 B(  7-C , 19-F ) :   1.0866
B(  8-C ,  9-C ) :   0.9699 B(  8-C , 20-F ) :   1.0875 B(  8-C , 21-F ) :   1.0993
B(  9-C , 22-F ) :   1.1431 B(  9-C , 23-F ) :   1.1488 B(  9-C , 24-F ) :   1.1546

Dispersion correction           -0.044207893
FINAL SINGLE POINT ENERGY     -1953.193830129842

DIPOLE MOMENT
-------------

Method             : SCF
Type of density    : Electron Density
Multiplicity       :   1
Irrep              :   0
Energy             : -1953.1496222367425162 Eh
Relativity type    :
Basis              : AO
                                X                 Y                 Z
Electronic contribution:    -18.826519492      -0.996056182       1.847561782
Nuclear contribution   :      9.859067767       0.586606538      -1.057314639
                        -----------------------------------------
Total Dipole Moment    :     -8.967451725      -0.409449644       0.790247142
                        -----------------------------------------
Magnitude (a.u.)       :      9.011510972
Magnitude (Debye)      :     22.905440566

VIBRATIONAL FREQUENCIES
-----------------------

Scaling factor for frequencies =  1.000000000  (already applied!)

     0:       0.00 cm**-1
     1:       0.00 cm**-1
     2:       0.00 cm**-1
     3:       0.00 cm**-1
     4:       0.00 cm**-1
     5:       0.00 cm**-1
     6:      26.83 cm**-1
     7:      32.56 cm**-1
     8:      39.90 cm**-1
     9:      47.70 cm**-1
    10:      55.21 cm**-1
    11:      67.26 cm**-1
    12:      70.24 cm**-1
    13:      75.54 cm**-1
    14:     118.52 cm**-1
    15:     133.69 cm**-1
    16:     163.35 cm**-1
    17:     191.53 cm**-1
    18:     203.17 cm**-1
    19:     205.40 cm**-1
    20:     212.41 cm**-1
    21:     234.59 cm**-1
    22:     246.92 cm**-1
    23:     255.05 cm**-1
    24:     260.06 cm**-1
    25:     264.61 cm**-1
    26:     287.00 cm**-1
    27:     303.51 cm**-1
    28:     312.49 cm**-1
    29:     334.10 cm**-1
    30:     345.61 cm**-1
    31:     359.73 cm**-1
    32:     363.40 cm**-1
    33:     369.11 cm**-1
    34:     370.41 cm**-1
    35:     377.14 cm**-1
    36:     409.51 cm**-1
    37:     460.02 cm**-1
    38:     502.96 cm**-1
    39:     524.35 cm**-1
    40:     537.58 cm**-1
    41:     554.37 cm**-1
    42:     555.68 cm**-1
    43:     576.18 cm**-1
    44:     594.16 cm**-1
    45:     611.44 cm**-1
    46:     641.95 cm**-1
    47:     658.94 cm**-1
    48:     683.95 cm**-1
    49:     718.99 cm**-1
    50:     727.15 cm**-1
    51:     768.84 cm**-1
    52:     792.91 cm**-1
    53:     870.71 cm**-1
    54:     998.06 cm**-1
    55:    1084.36 cm**-1
    56:    1089.83 cm**-1
    57:    1112.13 cm**-1
    58:    1116.25 cm**-1
    59:    1127.43 cm**-1
    60:    1134.95 cm**-1
    61:    1146.98 cm**-1
    62:    1147.19 cm**-1
    63:    1155.06 cm**-1
    64:    1160.76 cm**-1
    65:    1169.75 cm**-1
    66:    1183.73 cm**-1
    67:    1194.03 cm**-1
    68:    1217.36 cm**-1
    69:    1248.33 cm**-1
    70:    1265.20 cm**-1
    71:    1288.13 cm**-1
    72:    1341.51 cm**-1
    73:    1375.03 cm**-1
    74:    1731.18 cm**-1

IR SPECTRUM
-----------

 Mode   freq       eps      Int      T**2         TX        TY        TZ
       cm**-1   L/(mol*cm) km/mol    a.u.
----------------------------------------------------------------------------
  6:     26.83   0.000572    2.89  0.006653  (-0.018758 -0.016936 -0.077552)
  7:     32.56   0.000129    0.65  0.001239  (-0.009790  0.022720 -0.025048)
  8:     39.90   0.000734    3.71  0.005744  (-0.001649 -0.072138 -0.023183)
  9:     47.70   0.000009    0.04  0.000056  ( 0.001703 -0.007201  0.001116)
 10:     55.21   0.000164    0.83  0.000928  ( 0.012065 -0.016728  0.022420)
 11:     67.26   0.000096    0.49  0.000446  ( 0.002154 -0.020998  0.000123)
 12:     70.24   0.000091    0.46  0.000404  (-0.005990  0.018139 -0.006269)
 13:     75.54   0.000470    2.38  0.001943  (-0.016974  0.025737 -0.031508)
 14:    118.52   0.000894    4.52  0.002353  (-0.039910  0.006261 -0.026848)
 15:    133.69   0.000314    1.59  0.000732  ( 0.025062  0.003107 -0.009726)
 16:    163.35   0.000476    2.41  0.000910  (-0.023938  0.013287 -0.012667)
 17:    191.53   0.003060   15.47  0.004986  ( 0.001262 -0.000241 -0.070600)
 18:    203.17   0.000285    1.44  0.000437  ( 0.010738  0.007771  0.016171)
 19:    205.40   0.000061    0.31  0.000093  ( 0.008124 -0.002744  0.004372)
 20:    212.41   0.000593    2.99  0.000871  ( 0.000288  0.029403 -0.002454)
 21:    234.59   0.000049    0.25  0.000065  (-0.001576  0.002984  0.007333)
 22:    246.92   0.000015    0.08  0.000019  (-0.003966 -0.000535 -0.001857)
 23:    255.05   0.000151    0.76  0.000185  (-0.006280  0.002731  0.011760)
 24:    260.06   0.000006    0.03  0.000007  (-0.001600  0.000359  0.002003)
 25:    264.61   0.000224    1.13  0.000264  ( 0.006585 -0.001673  0.014755)
 26:    287.00   0.001290    6.52  0.001403  (-0.035418  0.011536  0.003908)
 27:    303.51   0.000048    0.24  0.000049  ( 0.002190 -0.000035 -0.006639)
 28:    312.49   0.000145    0.73  0.000145  (-0.006452  0.010091  0.001041)
 29:    334.10   0.000123    0.62  0.000115  ( 0.008493 -0.003067  0.005800)
 30:    345.61   0.000518    2.62  0.000468  (-0.013882  0.001243 -0.016535)
 31:    359.73   0.000155    0.78  0.000134  (-0.005683  0.000010 -0.010098)
 32:    363.40   0.000021    0.10  0.000018  ( 0.004016  0.000764 -0.001016)
 33:    369.11   0.000029    0.15  0.000025  (-0.004332  0.001889  0.001608)
 34:    370.41   0.000518    2.62  0.000436  (-0.020784  0.000247 -0.002049)
 35:    377.14   0.000084    0.42  0.000069  ( 0.008331 -0.000237  0.000005)
 36:    409.51   0.000162    0.82  0.000123  (-0.006242 -0.009090  0.001283)
 37:    460.02   0.000620    3.13  0.000421  ( 0.012687 -0.006025  0.014947)
 38:    502.96   0.006729   34.00  0.004175  ( 0.064378 -0.004730  0.002822)
 39:    524.35   0.007388   37.34  0.004397  ( 0.059266 -0.028433 -0.008730)
 40:    537.58   0.006459   32.64  0.003749  (-0.054281  0.017344 -0.022405)
 41:    554.37   0.010765   54.40  0.006060  ( 0.061330  0.047478 -0.006651)
 42:    555.68   0.005330   26.94  0.002994  (-0.052764  0.007301 -0.012498)
 43:    576.18   0.001246    6.30  0.000675  (-0.008141  0.007640  0.023460)
 44:    594.16   0.003340   16.88  0.001754  (-0.041344  0.002402 -0.006268)
 45:    611.44   0.000244    1.23  0.000125  ( 0.002890 -0.010463  0.002598)
 46:    641.95   0.027892  140.96  0.013559  (-0.115578 -0.007211 -0.012199)
 47:    658.94   0.023939  120.98  0.011337  ( 0.106058 -0.001543 -0.009283)
 48:    683.95   0.000096    0.49  0.000044  (-0.005518 -0.002913  0.002258)
 49:    718.99   0.000375    1.90  0.000163  (-0.008451  0.002790  0.009149)
 50:    727.15   0.003380   17.08  0.001451  ( 0.037770 -0.004650  0.001523)
 51:    768.84   0.000828    4.19  0.000336  ( 0.007008 -0.013432 -0.010331)
 52:    792.91   0.020523  103.71  0.008077  ( 0.064641  0.030457 -0.054507)
 53:    870.71   0.003687   18.63  0.001322  ( 0.036073 -0.001613 -0.004200)
 54:    998.06   0.009710   49.07  0.003036  (-0.050600  0.010825 -0.018932)
 55:   1084.36   0.051266  259.08  0.014754  ( 0.023122  0.089736  0.078526)
 56:   1089.83   0.017941   90.67  0.005137  (-0.029081 -0.019068  0.062674)
 57:   1112.13   0.032821  165.86  0.009210  ( 0.019308 -0.042605  0.083795)
 58:   1116.25   0.002894   14.62  0.000809  (-0.010635  0.021137 -0.015782)
 59:   1127.43   0.030263  152.93  0.008376  (-0.024043 -0.083422  0.028968)
 60:   1134.95   0.130647  660.24  0.035922  (-0.007237 -0.179766 -0.059618)
 61:   1146.98   0.042149  213.01  0.011468  (-0.015258  0.016326 -0.104730)
 62:   1147.19   0.030636  154.82  0.008334  ( 0.008690  0.057197  0.070617)
 63:   1155.06   0.124387  628.60  0.033606  (-0.003919  0.041569 -0.178500)
 64:   1160.76   0.074586  376.93  0.020052  ( 0.041916 -0.131193 -0.032916)
 65:   1169.75   0.068908  348.23  0.018383  (-0.024119 -0.017872  0.132219)
 66:   1183.73   0.049881  252.08  0.013150  ( 0.010591  0.056973 -0.098954)
 67:   1194.03   0.007287   36.83  0.001905  (-0.003701  0.014364  0.041043)
 68:   1217.36   0.009902   50.04  0.002538  (-0.037430  0.006318  0.033127)
 69:   1248.33   0.005308   26.82  0.001327  ( 0.021997 -0.021986 -0.018965)
 70:   1265.20   0.003286   16.60  0.000810  (-0.019890  0.016072  0.012509)
 71:   1288.13   0.006686   33.79  0.001620  ( 0.025102 -0.024220  0.020073)
 72:   1341.51   0.045915  232.03  0.010681  (-0.100552 -0.019798  0.013348)
 73:   1375.03   0.025510  128.92  0.005789  (-0.068818 -0.019222  0.026154)
 74:   1731.18   0.161997  818.66  0.029202  (-0.029180  0.154276  0.067447)

--------------------------
THERMOCHEMISTRY AT 298.15K
--------------------------

Temperature         ...   298.15 K
Pressure            ...     1.00 atm
Total Mass          ...   413.06 AMU
Quasi RRHO          ...     True
Cut-Off Frequency   ...     1.00 cm^-1

Throughout the following assumptions are being made:
  (1) The electronic state is orbitally nondegenerate
  (2) There are no thermally accessible electronically excited states
  (3) Hindered rotations indicated by low frequency modes are not
      treated as such but are treated as vibrations and this may
      cause some error
  (4) All equations used are the standard statistical mechanics
      equations for an ideal gas
  (5) All vibrations are strictly harmonic

freq.      26.83  E(vib)   ...       0.55
freq.      32.56  E(vib)   ...       0.55
freq.      39.90  E(vib)   ...       0.54
freq.      47.70  E(vib)   ...       0.53
freq.      55.21  E(vib)   ...       0.52
freq.      67.26  E(vib)   ...       0.50
freq.      70.24  E(vib)   ...       0.50
freq.      75.54  E(vib)   ...       0.49
freq.     118.52  E(vib)   ...       0.44
freq.     133.69  E(vib)   ...       0.42
freq.     163.35  E(vib)   ...       0.39
freq.     191.53  E(vib)   ...       0.36
freq.     203.17  E(vib)   ...       0.35
freq.     205.40  E(vib)   ...       0.35
freq.     212.41  E(vib)   ...       0.34
freq.     234.59  E(vib)   ...       0.32
freq.     246.92  E(vib)   ...       0.31
freq.     255.05  E(vib)   ...       0.30
freq.     260.06  E(vib)   ...       0.30
freq.     264.61  E(vib)   ...       0.29
freq.     287.00  E(vib)   ...       0.27
freq.     303.51  E(vib)   ...       0.26
freq.     312.49  E(vib)   ...       0.25
freq.     334.10  E(vib)   ...       0.24
freq.     345.61  E(vib)   ...       0.23
freq.     359.73  E(vib)   ...       0.22
freq.     363.40  E(vib)   ...       0.22
freq.     369.11  E(vib)   ...       0.21
freq.     370.41  E(vib)   ...       0.21
freq.     377.14  E(vib)   ...       0.21
freq.     409.51  E(vib)   ...       0.19
freq.     460.02  E(vib)   ...       0.16
freq.     502.96  E(vib)   ...       0.14
freq.     524.35  E(vib)   ...       0.13
freq.     537.58  E(vib)   ...       0.12
freq.     554.37  E(vib)   ...       0.12
freq.     555.68  E(vib)   ...       0.12
freq.     576.18  E(vib)   ...       0.11
freq.     594.16  E(vib)   ...       0.10
freq.     611.44  E(vib)   ...       0.10
freq.     641.95  E(vib)   ...       0.09
freq.     658.94  E(vib)   ...       0.08
freq.     683.95  E(vib)   ...       0.07
freq.     718.99  E(vib)   ...       0.07
freq.     727.15  E(vib)   ...       0.06
freq.     768.84  E(vib)   ...       0.06
freq.     792.91  E(vib)   ...       0.05
freq.     870.71  E(vib)   ...       0.04
freq.     998.06  E(vib)   ...       0.02
freq.    1084.36  E(vib)   ...       0.02
freq.    1089.83  E(vib)   ...       0.02
freq.    1112.13  E(vib)   ...       0.01
freq.    1116.25  E(vib)   ...       0.01
freq.    1127.43  E(vib)   ...       0.01
freq.    1134.95  E(vib)   ...       0.01
freq.    1146.98  E(vib)   ...       0.01
freq.    1147.19  E(vib)   ...       0.01
freq.    1155.06  E(vib)   ...       0.01
freq.    1160.76  E(vib)   ...       0.01
freq.    1169.75  E(vib)   ...       0.01
freq.    1183.73  E(vib)   ...       0.01
freq.    1194.03  E(vib)   ...       0.01
freq.    1217.36  E(vib)   ...       0.01
freq.    1248.33  E(vib)   ...       0.01
freq.    1265.20  E(vib)   ...       0.01
freq.    1288.13  E(vib)   ...       0.01
freq.    1341.51  E(vib)   ...       0.01
freq.    1375.03  E(vib)   ...       0.01
freq.    1731.18  E(vib)   ...       0.00

------------
INNER ENERGY
------------

The inner energy is: U= E(el) + E(ZPE) + E(vib) + E(rot) + E(trans)
    E(el)   - is the total energy from the electronic structure calculation
              = E(kin-el) + E(nuc-el) + E(el-el) + E(nuc-nuc)
    E(ZPE)  - the the zero temperature vibrational energy from the frequency calculation
    E(vib)  - the the finite temperature correction to E(ZPE) due to population
              of excited vibrational states
    E(rot)  - is the rotational thermal energy
    E(trans)- is the translational thermal energy

Summary of contributions to the inner energy U:
Electronic energy                ...  -1953.19383013 Eh
Zero point energy                ...      0.09751467 Eh      61.19 kcal/mol
Thermal vibrational correction   ...      0.02025680 Eh      12.71 kcal/mol
Thermal rotational correction    ...      0.00141627 Eh       0.89 kcal/mol
Thermal translational correction ...      0.00141627 Eh       0.89 kcal/mol
-----------------------------------------------------------------------
Total thermal energy                  -1953.07322612 Eh

Summary of corrections to the electronic energy:
(perhaps to be used in another calculation)
Total thermal correction                  0.02308934 Eh      14.49 kcal/mol
Non-thermal (ZPE) correction              0.09751467 Eh      61.19 kcal/mol
-----------------------------------------------------------------------
Total correction                          0.12060401 Eh      75.68 kcal/mol

--------
ENTHALPY
--------

The enthalpy is H = U + kB*T
                kB is Boltzmann's constant
Total thermal energy              ...  -1953.07322612 Eh
Thermal Enthalpy correction       ...      0.00094421 Eh       0.59 kcal/mol
-----------------------------------------------------------------------
Total Enthalpy                    ...  -1953.07228191 Eh

Note: Only C1 symmetry has been detected, increase convergence thresholds
      if your molecule has a higher symmetry. Symmetry factor of 1.0 is
      used for the rotational entropy correction.

Note: Rotational entropy computed according to Herzberg
Infrared and Raman Spectra, Chapter V,1, Van Nostrand Reinhold, 1945
Point Group:  C1, Symmetry Number:   1
Rotational constants in cm-1:     0.021283     0.003719     0.003666

Vibrational entropy computed according to the QRRHO of S. Grimme
Chem.Eur.J. 2012 18 9955 using a reference frequency of 100.0 cm-1

-------
ENTROPY
-------

The entropy contributions are T*S = T*(S(el)+S(vib)+S(rot)+S(trans))
     S(el)   - electronic entropy
     S(vib)  - vibrational entropy
     S(rot)  - rotational entropy
     S(trans)- translational entropy
The entropies will be listed as multiplied by the temperature to get
units of energy

Electronic entropy                ...      0.00000000 Eh      0.00 kcal/mol
Vibrational entropy               ...      0.03609342 Eh     22.65 kcal/mol
Rotational entropy                ...      0.01661708 Eh     10.43 kcal/mol

                             ****ORCA TERMINATED NORMALLY****
TOTAL RUN TIME: 0 days 0 hours 14 minutes 25 seconds 473 msec
