                         Program Version 6.0.1  -  RELEASE   -
|  1> !r2scanh def2-TZVP freq d3 TightSCF SlowConv defgrid2
|  2>
|  3> %pal
|  4> nprocs 20
|  5> end
|  6>
|  7> %scf
|  8> MaxIter 1500
|  9> end
| 10>
| 11> %maxcore 8000
| 12>
| 13> !CPCM
| 14> %cpcm smd true
| 15> SMDsolvent "ACETONITRILE"
| 16> end
| 17>
| 18> * xyz 0 2
| 19> 6        4.636299000     -0.313458000      0.075709000
| 20> 8        5.027443000     -1.232081000     -0.785503000
| 21> 8        5.257718000      0.629238000      0.467919000
| 22> 6        3.187507000     -0.573006000      0.547267000
| 23> 6        2.178704000      0.241611000     -0.307429000
| 24> 6        0.698689000     -0.204250000     -0.127512000
| 25> 6       -0.349256000      0.856773000     -0.575380000
| 26> 6       -1.731527000      0.297783000     -0.684271000
| 27> 6       -2.826244000      0.516795000      0.301655000
| 28> 6       -3.995320000     -0.489383000      0.157184000
| 29> 9        2.870037000     -1.877516000      0.458808000
| 30> 9        3.082210000     -0.188590000      1.827406000
| 31> 9        2.304000000      1.537453000      0.017602000
| 32> 9        2.511703000      0.091542000     -1.601572000
| 33> 9        0.498364000     -1.312432000     -0.860422000
| 34> 9        0.467618000     -0.493145000      1.162549000
| 35> 9       -0.351777000      1.864897000      0.315147000
| 36> 9        0.039047000      1.328251000     -1.780373000
| 37> 9       -2.020682000     -0.329650000     -1.803818000
| 38> 9       -3.359614000      1.760553000      0.193639000
| 39> 9       -2.340758000      0.402929000      1.555714000
| 40> 9       -3.538607000     -1.735564000      0.222330000
| 41> 9       -4.858695000     -0.296368000      1.146446000
| 42> 9       -4.626179000     -0.317404000     -0.998103000
| 43> 1        5.935640000     -1.028007000     -1.076694000
| 44> *
| 45>
| 46>                          ****END OF INPUT****

CARTESIAN COORDINATES (ANGSTROEM)
---------------------------------
  C      4.636299   -0.313458    0.075709
  O      5.027443   -1.232081   -0.785503
  O      5.257718    0.629238    0.467919
  C      3.187507   -0.573006    0.547267
  C      2.178704    0.241611   -0.307429
  C      0.698689   -0.204250   -0.127512
  C     -0.349256    0.856773   -0.575380
  C     -1.731527    0.297783   -0.684271
  C     -2.826244    0.516795    0.301655
  C     -3.995320   -0.489383    0.157184
  F      2.870037   -1.877516    0.458808
  F      3.082210   -0.188590    1.827406
  F      2.304000    1.537453    0.017602
  F      2.511703    0.091542   -1.601572
  F      0.498364   -1.312432   -0.860422
  F      0.467618   -0.493145    1.162549
  F     -0.351777    1.864897    0.315147
  F      0.039047    1.328251   -1.780373
  F     -2.020682   -0.329650   -1.803818
  F     -3.359614    1.760553    0.193639
  F     -2.340758    0.402929    1.555714
  F     -3.538607   -1.735564    0.222330
  F     -4.858695   -0.296368    1.146446
  F     -4.626179   -0.317404   -0.998103
  H      5.935640   -1.028007   -1.076694

 Total Charge           Charge          ....    0
 Multiplicity           Mult            ....    2
 Number of Electrons    NEL             ....  191
 Basis Dimension        Dim             ....  750

ORBITAL ENERGIES
----------------
                 SPIN UP ORBITALS
  NO   OCC          E(Eh)            E(eV)
   0   1.0000     -24.748711      -673.4467
   1   1.0000     -24.731955      -672.9907
   2   1.0000     -24.731895      -672.9891
   3   1.0000     -24.731308      -672.9731
   4   1.0000     -24.731034      -672.9657
   5   1.0000     -24.730919      -672.9625
   6   1.0000     -24.730744      -672.9578
   7   1.0000     -24.730444      -672.9496
   8   1.0000     -24.729212      -672.9161
   9   1.0000     -24.727415      -672.8672
  10   1.0000     -24.725857      -672.8248
  11   1.0000     -24.723034      -672.7479
  12   1.0000     -24.721363      -672.7025
  13   1.0000     -24.721113      -672.6957
  14   1.0000     -19.196823      -522.3721
  15   1.0000     -19.140963      -520.8521
  16   1.0000     -10.438651      -284.0501
  17   1.0000     -10.387465      -282.6573
  18   1.0000     -10.384178      -282.5679
  19   1.0000     -10.384134      -282.5667
  20   1.0000     -10.383730      -282.5557
  21   1.0000     -10.375262      -282.3252
  22   1.0000     -10.326198      -280.9901
  23   1.0000     -10.313624      -280.6480
  24   1.0000      -1.360121       -37.0108
  25   1.0000      -1.338767       -36.4297
  26   1.0000      -1.322567       -35.9889
  27   1.0000      -1.314017       -35.7562
  28   1.0000      -1.310161       -35.6513
  29   1.0000      -1.308389       -35.6031
  30   1.0000      -1.304483       -35.4968
  31   1.0000      -1.269492       -34.5446
  32   1.0000      -1.268972       -34.5305
  33   1.0000      -1.266426       -34.4612
  34   1.0000      -1.259963       -34.2853
  35   1.0000      -1.254789       -34.1445
  36   1.0000      -1.250541       -34.0290
  37   1.0000      -1.249887       -34.0112
  38   1.0000      -1.152610       -31.3641
  39   1.0000      -1.065642       -28.9976
  40   1.0000      -0.861370       -23.4391
  41   1.0000      -0.836477       -22.7617
  42   1.0000      -0.808658       -22.0047
  43   1.0000      -0.775135       -21.0925
  44   1.0000      -0.729577       -19.8528
  45   1.0000      -0.696478       -18.9521
  46   1.0000      -0.669616       -18.2212
  47   1.0000      -0.661041       -17.9878
  48   1.0000      -0.636217       -17.3123
  49   1.0000      -0.634367       -17.2620
  50   1.0000      -0.631033       -17.1713
  51   1.0000      -0.624209       -16.9856
  52   1.0000      -0.623653       -16.9704
  53   1.0000      -0.616333       -16.7713
  54   1.0000      -0.603491       -16.4218
  55   1.0000      -0.600541       -16.3416
  56   1.0000      -0.593617       -16.1531
  57   1.0000      -0.588962       -16.0265
  58   1.0000      -0.583347       -15.8737
  59   1.0000      -0.578941       -15.7538
  60   1.0000      -0.570384       -15.5209
  61   1.0000      -0.563224       -15.3261
  62   1.0000      -0.527422       -14.3519
  63   1.0000      -0.512184       -13.9372
  64   1.0000      -0.501210       -13.6386
  65   1.0000      -0.496233       -13.5032
  66   1.0000      -0.493966       -13.4415
  67   1.0000      -0.489199       -13.3118
  68   1.0000      -0.486898       -13.2492
  69   1.0000      -0.485887       -13.2216
  70   1.0000      -0.482990       -13.1428
  71   1.0000      -0.475655       -12.9432
  72   1.0000      -0.473697       -12.8899
  73   1.0000      -0.469552       -12.7772
  74   1.0000      -0.464570       -12.6416
  75   1.0000      -0.461675       -12.5628
  76   1.0000      -0.456243       -12.4150
  77   1.0000      -0.455498       -12.3947
  78   1.0000      -0.451776       -12.2935
  79   1.0000      -0.447951       -12.1894
  80   1.0000      -0.447190       -12.1687
  81   1.0000      -0.445472       -12.1219
  82   1.0000      -0.438350       -11.9281
  83   1.0000      -0.433801       -11.8043
  84   1.0000      -0.433234       -11.7889
  85   1.0000      -0.429977       -11.7003
  86   1.0000      -0.428468       -11.6592
  87   1.0000      -0.426828       -11.6146
  88   1.0000      -0.425002       -11.5649
  89   1.0000      -0.417067       -11.3490
  90   1.0000      -0.395189       -10.7536
  91   1.0000      -0.371960       -10.1215
  92   1.0000      -0.351431        -9.5629
  93   1.0000      -0.345420        -9.3994
  94   1.0000      -0.304254        -8.2792
  95   1.0000      -0.270874        -7.3709
  96   0.0000      -0.060876        -1.6565
  97   0.0000      -0.009708        -0.2642
  98   0.0000       0.019609         0.5336
  99   0.0000       0.031313         0.8521
 100   0.0000       0.055423         1.5081

                 SPIN DOWN ORBITALS
  NO   OCC          E(Eh)            E(eV)
   0   1.0000     -24.743431      -673.3030
   1   1.0000     -24.731939      -672.9903
   2   1.0000     -24.731842      -672.9876
   3   1.0000     -24.731236      -672.9711
   4   1.0000     -24.731041      -672.9658
   5   1.0000     -24.730887      -672.9616
   6   1.0000     -24.730728      -672.9573
   7   1.0000     -24.730433      -672.9493
   8   1.0000     -24.728859      -672.9065
   9   1.0000     -24.726512      -672.8426
  10   1.0000     -24.725068      -672.8033
  11   1.0000     -24.723036      -672.7480
  12   1.0000     -24.721357      -672.7023
  13   1.0000     -24.719183      -672.6432
  14   1.0000     -19.196819      -522.3720
  15   1.0000     -19.140945      -520.8516
  16   1.0000     -10.438558      -284.0476
  17   1.0000     -10.388573      -282.6874
  18   1.0000     -10.385053      -282.5917
  19   1.0000     -10.383654      -282.5536
  20   1.0000     -10.383449      -282.5480
  21   1.0000     -10.375210      -282.3238
  22   1.0000     -10.326185      -280.9898
  23   1.0000     -10.296625      -280.1854
  24   1.0000      -1.359873       -37.0040
  25   1.0000      -1.338301       -36.4170
  26   1.0000      -1.321160       -35.9506
  27   1.0000      -1.312528       -35.7157
  28   1.0000      -1.309179       -35.6246
  29   1.0000      -1.307496       -35.5788
  30   1.0000      -1.296805       -35.2879
  31   1.0000      -1.269212       -34.5370
  32   1.0000      -1.268690       -34.5228
  33   1.0000      -1.266303       -34.4579
  34   1.0000      -1.259475       -34.2721
  35   1.0000      -1.253927       -34.1211
  36   1.0000      -1.250530       -34.0287
  37   1.0000      -1.247142       -33.9365
  38   1.0000      -1.152593       -31.3637
  39   1.0000      -1.065617       -28.9969
  40   1.0000      -0.847266       -23.0553
  41   1.0000      -0.831219       -22.6186
  42   1.0000      -0.807507       -21.9734
  43   1.0000      -0.769153       -20.9297
  44   1.0000      -0.724695       -19.7200
  45   1.0000      -0.694707       -18.9039
  46   1.0000      -0.664982       -18.0951
  47   1.0000      -0.660670       -17.9777
  48   1.0000      -0.634481       -17.2651
  49   1.0000      -0.632685       -17.2162
  50   1.0000      -0.627923       -17.0866
  51   1.0000      -0.623497       -16.9662
  52   1.0000      -0.623074       -16.9547
  53   1.0000      -0.615604       -16.7514
  54   1.0000      -0.602353       -16.3909
  55   1.0000      -0.598189       -16.2775
  56   1.0000      -0.591931       -16.1073
  57   1.0000      -0.586706       -15.9651
  58   1.0000      -0.579445       -15.7675
  59   1.0000      -0.577642       -15.7184
  60   1.0000      -0.568558       -15.4713
  61   1.0000      -0.562959       -15.3189
  62   1.0000      -0.512164       -13.9367
  63   1.0000      -0.499916       -13.6034
  64   1.0000      -0.499001       -13.5785
  65   1.0000      -0.495846       -13.4927
  66   1.0000      -0.492280       -13.3956
  67   1.0000      -0.487975       -13.2785
  68   1.0000      -0.486196       -13.2301
  69   1.0000      -0.483947       -13.1689
  70   1.0000      -0.482509       -13.1297
  71   1.0000      -0.474418       -12.9096
  72   1.0000      -0.472062       -12.8455
  73   1.0000      -0.468762       -12.7557
  74   1.0000      -0.463539       -12.6135
  75   1.0000      -0.460342       -12.5266
  76   1.0000      -0.455402       -12.3921
  77   1.0000      -0.453782       -12.3480
  78   1.0000      -0.449562       -12.2332
  79   1.0000      -0.446626       -12.1533
  80   1.0000      -0.445812       -12.1312
  81   1.0000      -0.444519       -12.0960
  82   1.0000      -0.437814       -11.9135
  83   1.0000      -0.432678       -11.7738
  84   1.0000      -0.431913       -11.7529
  85   1.0000      -0.429255       -11.6806
  86   1.0000      -0.428077       -11.6486
  87   1.0000      -0.425938       -11.5904
  88   1.0000      -0.423276       -11.5179
  89   1.0000      -0.416134       -11.3236
  90   1.0000      -0.393213       -10.6999
  91   1.0000      -0.369333       -10.0501
  92   1.0000      -0.351260        -9.5583
  93   1.0000      -0.342850        -9.3294
  94   1.0000      -0.303625        -8.2621
  95   0.0000      -0.129409        -3.5214
  96   0.0000      -0.059383        -1.6159
  97   0.0000      -0.007345        -0.1999
  98   0.0000       0.024290         0.6610
  99   0.0000       0.033568         0.9134

MULLIKEN ATOMIC CHARGES AND SPIN POPULATIONS
--------------------------------------------
   0 C :    0.282589    0.000432
   1 O :   -0.365515    0.000080
   2 O :   -0.326613    0.000558
   3 C :    0.411389    0.001983
   4 C :    0.287768    0.004717
   5 C :    0.306422    0.028284
   6 C :    0.390864   -0.026442
   7 C :    0.107674    0.839900
   8 C :    0.361383   -0.008399
   9 C :    0.473380   -0.003247
  10 F :   -0.174519    0.000026
  11 F :   -0.170615    0.000127
  12 F :   -0.167017   -0.000113
  13 F :   -0.169780    0.000249
  14 F :   -0.169852    0.000571
  15 F :   -0.169864    0.000406
  16 F :   -0.167759    0.005607
  17 F :   -0.169610    0.015754
  18 F :   -0.142248    0.093425
  19 F :   -0.174299    0.032381
  20 F :   -0.170778    0.011788
  21 F :   -0.159511    0.000431
  22 F :   -0.154869    0.000218
  23 F :   -0.157527    0.001191
  24 H :    0.388908    0.000072
Sum of atomic charges         :   -0.0000000

LOEWDIN ATOMIC CHARGES AND SPIN POPULATIONS
-------------------------------------------
   0 C :   -0.496276    0.000516
   1 O :    0.161223    0.000086
   2 O :    0.134108    0.000465
   3 C :   -0.464434    0.001940
   4 C :   -0.468060    0.004985
   5 C :   -0.466624    0.022801
   6 C :   -0.489655    0.058371
   7 C :   -0.163181    0.662667
   8 C :   -0.490830    0.058798
   9 C :   -0.674721    0.002095
  10 F :    0.216491   -0.000038
  11 F :    0.222604    0.000133
  12 F :    0.231996   -0.000105
  13 F :    0.227383    0.000298
  14 F :    0.229251    0.001035
  15 F :    0.231803    0.000705
  16 F :    0.227608    0.006142
  17 F :    0.218500    0.015590
  18 F :    0.269827    0.110308
  19 F :    0.200344    0.035033
  20 F :    0.216437    0.015154
  21 F :    0.229998    0.001132
  22 F :    0.231401    0.000347
  23 F :    0.230081    0.001508
  24 H :    0.234727    0.000035

  Mayer bond orders larger than 0.100000
B(  0-C ,  1-O ) :   1.2949 B(  0-C ,  2-O ) :   2.0424 B(  0-C ,  3-C ) :   0.8834
B(  1-O , 24-H ) :   0.8173 B(  3-C ,  4-C ) :   0.9453 B(  3-C , 10-F ) :   1.0804
B(  3-C , 11-F ) :   1.0996 B(  4-C ,  5-C ) :   0.9241 B(  4-C , 12-F ) :   1.0829
B(  4-C , 13-F ) :   1.0755 B(  5-C ,  6-C ) :   0.9298 B(  5-C , 14-F ) :   1.0759
B(  5-C , 15-F ) :   1.0798 B(  6-C ,  7-C ) :   1.0037 B(  6-C , 16-F ) :   1.0855
B(  6-C , 17-F ) :   1.0690 B(  7-C ,  8-C ) :   1.0389 B(  7-C , 18-F ) :   1.1258
B(  8-C ,  9-C ) :   0.9427 B(  8-C , 19-F ) :   1.0753 B(  8-C , 20-F ) :   1.0674
B(  9-C , 21-F ) :   1.1337 B(  9-C , 22-F ) :   1.1360 B(  9-C , 23-F ) :   1.1339

Dispersion correction           -0.008289705
FINAL SINGLE POINT ENERGY     -1853.569248962493

DIPOLE MOMENT
-------------

Method             : SCF
Type of density    : Electron Density
Multiplicity       :   2
Irrep              :   0
Energy             : -1853.5609592572375277 Eh
Relativity type    :
Basis              : AO
                                X                 Y                 Z
Electronic contribution:    -14.111434237       0.632093179       0.480454322
Nuclear contribution   :     14.815440795      -1.328355458      -1.375288209
                        -----------------------------------------
Total Dipole Moment    :      0.704006558      -0.696262278      -0.894833886
                        -----------------------------------------
Magnitude (a.u.)       :      1.334591353
Magnitude (Debye)      :      3.392261631

VIBRATIONAL FREQUENCIES
-----------------------

Scaling factor for frequencies =  1.000000000  (already applied!)

     0:       0.00 cm**-1
     1:       0.00 cm**-1
     2:       0.00 cm**-1
     3:       0.00 cm**-1
     4:       0.00 cm**-1
     5:       0.00 cm**-1
     6:       9.94 cm**-1
     7:      15.54 cm**-1
     8:      34.43 cm**-1
     9:      43.01 cm**-1
    10:      45.69 cm**-1
    11:      57.54 cm**-1
    12:      68.19 cm**-1
    13:      77.29 cm**-1
    14:      99.78 cm**-1
    15:     121.79 cm**-1
    16:     154.98 cm**-1
    17:     163.76 cm**-1
    18:     187.46 cm**-1
    19:     199.64 cm**-1
    20:     205.48 cm**-1
    21:     220.39 cm**-1
    22:     239.53 cm**-1
    23:     246.37 cm**-1
    24:     260.47 cm**-1
    25:     276.79 cm**-1
    26:     292.07 cm**-1
    27:     311.45 cm**-1
    28:     326.26 cm**-1
    29:     346.30 cm**-1
    30:     361.38 cm**-1
    31:     370.94 cm**-1
    32:     375.60 cm**-1
    33:     379.60 cm**-1
    34:     393.95 cm**-1
    35:     446.31 cm**-1
    36:     476.21 cm**-1
    37:     502.66 cm**-1
    38:     512.56 cm**-1
    39:     531.36 cm**-1
    40:     550.96 cm**-1
    41:     572.52 cm**-1
    42:     591.00 cm**-1
    43:     600.04 cm**-1
    44:     607.20 cm**-1
    45:     638.83 cm**-1
    46:     654.67 cm**-1
    47:     678.00 cm**-1
    48:     709.47 cm**-1
    49:     722.26 cm**-1
    50:     765.41 cm**-1
    51:     786.92 cm**-1
    52:     885.71 cm**-1
    53:    1006.07 cm**-1
    54:    1068.14 cm**-1
    55:    1115.45 cm**-1
    56:    1124.85 cm**-1
    57:    1140.71 cm**-1
    58:    1154.07 cm**-1
    59:    1161.97 cm**-1
    60:    1165.69 cm**-1
    61:    1176.01 cm**-1
    62:    1179.87 cm**-1
    63:    1196.70 cm**-1
    64:    1199.59 cm**-1
    65:    1202.13 cm**-1
    66:    1219.35 cm**-1
    67:    1275.79 cm**-1
    68:    1296.95 cm**-1
    69:    1303.57 cm**-1
    70:    1377.72 cm**-1
    71:    1414.88 cm**-1
    72:    1428.76 cm**-1
    73:    1845.21 cm**-1
    74:    3649.21 cm**-1

IR SPECTRUM
-----------

 Mode   freq       eps      Int      T**2         TX        TY        TZ
       cm**-1   L/(mol*cm) km/mol    a.u.
----------------------------------------------------------------------------
  6:      9.94   0.000138    0.70  0.004324  ( 0.030562  0.054890 -0.019426)
  7:     15.54   0.000072    0.37  0.001451  (-0.011905 -0.035768  0.005479)
  8:     34.43   0.000013    0.07  0.000121  (-0.005422  0.004868 -0.008265)
  9:     43.01   0.000333    1.69  0.002419  ( 0.008728 -0.036643  0.031630)
 10:     45.69   0.000263    1.33  0.001796  ( 0.021240 -0.009191  0.035507)
 11:     57.54   0.000146    0.74  0.000793  ( 0.015631 -0.004431  0.022995)
 12:     68.19   0.000060    0.30  0.000273  ( 0.008635  0.010264  0.009667)
 13:     77.29   0.000059    0.30  0.000238  ( 0.004140  0.003649  0.014411)
 14:     99.78   0.000389    1.97  0.001218  (-0.027589  0.009320 -0.019226)
 15:    121.79   0.000288    1.45  0.000737  (-0.000443  0.011959  0.024366)
 16:    154.98   0.000071    0.36  0.000142  ( 0.004815 -0.010356  0.003461)
 17:    163.76   0.000127    0.64  0.000241  (-0.008832  0.000676 -0.012752)
 18:    187.46   0.000141    0.71  0.000235  (-0.007485  0.003444  0.012943)
 19:    199.64   0.001551    7.84  0.002424  (-0.027763  0.009959 -0.039422)
 20:    205.48   0.001153    5.83  0.001751  (-0.023085  0.029337  0.018903)
 21:    220.39   0.000181    0.92  0.000257  ( 0.001387 -0.011437  0.011134)
 22:    239.53   0.000024    0.12  0.000031  ( 0.004658  0.001753 -0.002579)
 23:    246.37   0.000078    0.39  0.000098  (-0.005912  0.002392  0.007589)
 24:    260.47   0.000426    2.16  0.000511  ( 0.021979  0.005167 -0.001102)
 25:    276.79   0.001036    5.23  0.001168  (-0.030982  0.003881  0.013880)
 26:    292.07   0.000680    3.44  0.000726  ( 0.024069 -0.001055 -0.012085)
 27:    311.45   0.000015    0.08  0.000015  (-0.002839  0.002579  0.000791)
 28:    326.26   0.000043    0.22  0.000041  ( 0.004591  0.000353  0.004424)
 29:    346.30   0.000431    2.18  0.000388  ( 0.017444  0.004559  0.007943)
 30:    361.38   0.000050    0.25  0.000043  ( 0.006279  0.000109 -0.001924)
 31:    370.94   0.000351    1.77  0.000295  (-0.008677 -0.009038 -0.011755)
 32:    375.60   0.000239    1.21  0.000199  ( 0.010135  0.009221  0.003283)
 33:    379.60   0.000471    2.38  0.000387  (-0.018125 -0.007623  0.000496)
 34:    393.95   0.001244    6.29  0.000986  (-0.029462  0.009708  0.004853)
 35:    446.31   0.000039    0.20  0.000027  (-0.003155 -0.003907 -0.001383)
 36:    476.21   0.000541    2.73  0.000354  ( 0.007255 -0.006728 -0.016016)
 37:    502.66   0.005758   29.10  0.003575  ( 0.046223  0.032288 -0.019891)
 38:    512.56   0.004074   20.59  0.002480  (-0.035155  0.006100  0.034745)
 39:    531.36   0.006298   31.83  0.003699  (-0.058313  0.013264  0.011060)
 40:    550.96   0.001932    9.76  0.001094  (-0.030325 -0.008730 -0.009923)
 41:    572.52   0.010707   54.11  0.005836  ( 0.007404  0.045793 -0.060697)
 42:    591.00   0.015757   79.63  0.008320  ( 0.072540 -0.035900  0.042064)
 43:    600.04   0.001671    8.44  0.000869  (-0.024148  0.003154  0.016606)
 44:    607.20   0.004496   22.72  0.002311  (-0.005225 -0.006028  0.047403)
 45:    638.83   0.052673  266.19  0.025730  (-0.138635  0.073354 -0.033615)
 46:    654.67   0.004415   22.31  0.002105  (-0.013639 -0.005198  0.043492)
 47:    678.00   0.005532   27.96  0.002546  (-0.041768 -0.025834  0.011583)
 48:    709.47   0.005637   28.49  0.002479  (-0.040827 -0.025347 -0.013042)
 49:    722.26   0.012385   62.59  0.005351  ( 0.068921  0.019441 -0.014937)
 50:    765.41   0.005629   28.45  0.002295  (-0.003038 -0.018997  0.043874)
 51:    786.92   0.008188   41.38  0.003247  ( 0.048487  0.000957 -0.029920)
 52:    885.71   0.006310   31.89  0.002223  (-0.019527 -0.015025  0.040202)
 53:   1006.07   0.015144   76.53  0.004697  (-0.045429 -0.033879  0.038547)
 54:   1068.14   0.048270  243.94  0.014102  ( 0.042963 -0.110313  0.009367)
 55:   1115.45   0.018353   92.75  0.005135  (-0.060260  0.002648 -0.038682)
 56:   1124.85   0.068419  345.76  0.018981  ( 0.002502  0.122605 -0.062795)
 57:   1140.71   0.020346  102.82  0.005566  (-0.006890 -0.026680  0.069330)
 58:   1154.07   0.049176  248.52  0.013297  ( 0.047420 -0.011146 -0.104520)
 59:   1161.97   0.013496   68.20  0.003625  (-0.015241 -0.014559 -0.056394)
 60:   1165.69   0.043793  221.31  0.011724  ( 0.014713  0.016631 -0.105975)
 61:   1176.01   0.236472  1195.03  0.062750  ( 0.010193 -0.171098 -0.182678)
 62:   1179.87   0.042331  213.92  0.011196  (-0.020548 -0.089937 -0.051818)
 63:   1196.70   0.071796  362.83  0.018722  ( 0.088085 -0.100850  0.028148)
 64:   1199.59   0.049472  250.01  0.012870  (-0.001051  0.022220 -0.111242)
 65:   1202.13   0.005541   28.00  0.001439  ( 0.023142 -0.009565  0.028486)
 66:   1219.35   0.004709   23.80  0.001205  (-0.017016  0.030033 -0.003684)
 67:   1275.79   0.011992   60.60  0.002933  (-0.042834 -0.022994  0.023869)
 68:   1296.95   0.042432  214.43  0.010210  ( 0.072769  0.016158 -0.068215)
 69:   1303.57   0.013770   69.59  0.003296  ( 0.052964  0.020340 -0.008806)
 70:   1377.72   0.000897    4.53  0.000203  (-0.007035 -0.002310 -0.012181)
 71:   1414.88   0.018561   93.80  0.004094  (-0.057992  0.024814 -0.010720)
 72:   1428.76   0.016536   83.57  0.003612  ( 0.002100 -0.032795 -0.050317)
 73:   1845.21   0.094639  478.27  0.016005  (-0.046948 -0.099505 -0.062450)
 74:   3649.21   0.050260  253.99  0.004298  (-0.057570  0.006687  0.030642)

--------------------------
THERMOCHEMISTRY AT 298.15K
--------------------------

Temperature         ...   298.15 K
Pressure            ...     1.00 atm
Total Mass          ...   395.07 AMU
Quasi RRHO          ...     True
Cut-Off Frequency   ...     1.00 cm^-1

Throughout the following assumptions are being made:
  (1) The electronic state is orbitally nondegenerate
      but the spin degeneracy is treated
  (2) There are no thermally accessible electronically excited states
  (3) Hindered rotations indicated by low frequency modes are not
      treated as such but are treated as vibrations and this may
      cause some error
  (4) All equations used are the standard statistical mechanics
      equations for an ideal gas
  (5) All vibrations are strictly harmonic

freq.       9.94  E(vib)   ...       0.58
freq.      15.54  E(vib)   ...       0.57
freq.      34.43  E(vib)   ...       0.54
freq.      43.01  E(vib)   ...       0.53
freq.      45.69  E(vib)   ...       0.53
freq.      57.54  E(vib)   ...       0.51
freq.      68.19  E(vib)   ...       0.50
freq.      77.29  E(vib)   ...       0.49
freq.      99.78  E(vib)   ...       0.46
freq.     121.79  E(vib)   ...       0.44
freq.     154.98  E(vib)   ...       0.40
freq.     163.76  E(vib)   ...       0.39
freq.     187.46  E(vib)   ...       0.36
freq.     199.64  E(vib)   ...       0.35
freq.     205.48  E(vib)   ...       0.35
freq.     220.39  E(vib)   ...       0.33
freq.     239.53  E(vib)   ...       0.31
freq.     246.37  E(vib)   ...       0.31
freq.     260.47  E(vib)   ...       0.30
freq.     276.79  E(vib)   ...       0.28
freq.     292.07  E(vib)   ...       0.27
freq.     311.45  E(vib)   ...       0.25
freq.     326.26  E(vib)   ...       0.24
freq.     346.30  E(vib)   ...       0.23
freq.     361.38  E(vib)   ...       0.22
freq.     370.94  E(vib)   ...       0.21
freq.     375.60  E(vib)   ...       0.21
freq.     379.60  E(vib)   ...       0.21
freq.     393.95  E(vib)   ...       0.20
freq.     446.31  E(vib)   ...       0.17
freq.     476.21  E(vib)   ...       0.15
freq.     502.66  E(vib)   ...       0.14
freq.     512.56  E(vib)   ...       0.13
freq.     531.36  E(vib)   ...       0.13
freq.     550.96  E(vib)   ...       0.12
freq.     572.52  E(vib)   ...       0.11
freq.     591.00  E(vib)   ...       0.10
freq.     600.04  E(vib)   ...       0.10
freq.     607.20  E(vib)   ...       0.10
freq.     638.83  E(vib)   ...       0.09
freq.     654.67  E(vib)   ...       0.08
freq.     678.00  E(vib)   ...       0.08
freq.     709.47  E(vib)   ...       0.07
freq.     722.26  E(vib)   ...       0.07
freq.     765.41  E(vib)   ...       0.06
freq.     786.92  E(vib)   ...       0.05
freq.     885.71  E(vib)   ...       0.04
freq.    1006.07  E(vib)   ...       0.02
freq.    1068.14  E(vib)   ...       0.02
freq.    1115.45  E(vib)   ...       0.01
freq.    1124.85  E(vib)   ...       0.01
freq.    1140.71  E(vib)   ...       0.01
freq.    1154.07  E(vib)   ...       0.01
freq.    1161.97  E(vib)   ...       0.01
freq.    1165.69  E(vib)   ...       0.01
freq.    1176.01  E(vib)   ...       0.01
freq.    1179.87  E(vib)   ...       0.01
freq.    1196.70  E(vib)   ...       0.01
freq.    1199.59  E(vib)   ...       0.01
freq.    1202.13  E(vib)   ...       0.01
freq.    1219.35  E(vib)   ...       0.01
freq.    1275.79  E(vib)   ...       0.01
freq.    1296.95  E(vib)   ...       0.01
freq.    1303.57  E(vib)   ...       0.01
freq.    1377.72  E(vib)   ...       0.01
freq.    1414.88  E(vib)   ...       0.00
freq.    1428.76  E(vib)   ...       0.00
freq.    1845.21  E(vib)   ...       0.00
freq.    3649.21  E(vib)   ...       0.00

------------
INNER ENERGY
------------

The inner energy is: U= E(el) + E(ZPE) + E(vib) + E(rot) + E(trans)
    E(el)   - is the total energy from the electronic structure calculation
              = E(kin-el) + E(nuc-el) + E(el-el) + E(nuc-nuc)
    E(ZPE)  - the the zero temperature vibrational energy from the frequency calculation
    E(vib)  - the the finite temperature correction to E(ZPE) due to population
              of excited vibrational states
    E(rot)  - is the rotational thermal energy
    E(trans)- is the translational thermal energy

Summary of contributions to the inner energy U:
Electronic energy                ...  -1853.56924896 Eh
Zero point energy                ...      0.10666471 Eh      66.93 kcal/mol
Thermal vibrational correction   ...      0.02004655 Eh      12.58 kcal/mol
Thermal rotational correction    ...      0.00141627 Eh       0.89 kcal/mol
Thermal translational correction ...      0.00141627 Eh       0.89 kcal/mol
-----------------------------------------------------------------------
Total thermal energy                  -1853.43970516 Eh

Summary of corrections to the electronic energy:
(perhaps to be used in another calculation)
Total thermal correction                  0.02287910 Eh      14.36 kcal/mol
Non-thermal (ZPE) correction              0.10666471 Eh      66.93 kcal/mol
-----------------------------------------------------------------------
Total correction                          0.12954381 Eh      81.29 kcal/mol

--------
ENTHALPY
--------

The enthalpy is H = U + kB*T
                kB is Boltzmann's constant
Total thermal energy              ...  -1853.43970516 Eh
Thermal Enthalpy correction       ...      0.00094421 Eh       0.59 kcal/mol
-----------------------------------------------------------------------
Total Enthalpy                    ...  -1853.43876095 Eh

Note: Only C1 symmetry has been detected, increase convergence thresholds
      if your molecule has a higher symmetry. Symmetry factor of 1.0 is
      used for the rotational entropy correction.

Note: Rotational entropy computed according to Herzberg
Infrared and Raman Spectra, Chapter V,1, Van Nostrand Reinhold, 1945
Point Group:  C1, Symmetry Number:   1
Rotational constants in cm-1:     0.020404     0.004108     0.004067

Vibrational entropy computed according to the QRRHO of S. Grimme
Chem.Eur.J. 2012 18 9955 using a reference frequency of 100.0 cm-1

-------
ENTROPY
-------

The entropy contributions are T*S = T*(S(el)+S(vib)+S(rot)+S(trans))
     S(el)   - electronic entropy
     S(vib)  - vibrational entropy
     S(rot)  - rotational entropy
     S(trans)- translational entropy
The entropies will be listed as multiplied by the temperature to get
units of energy

Electronic entropy                ...      0.00065446 Eh      0.41 kcal/mol
Vibrational entropy               ...      0.03677150 Eh     23.07 kcal/mol

                             ****ORCA TERMINATED NORMALLY****
TOTAL RUN TIME: 0 days 0 hours 24 minutes 5 seconds 608 msec
