                         Program Version 6.0.1  -  RELEASE   -
|  1> !r2scanh def2-TZVP opt d3 TightSCF SlowConv defgrid2
|  2>
|  3> %pal
|  4> nprocs 20
|  5> end
|  6>
|  7> %scf
|  8> MaxIter 1500
|  9> end
| 10>
| 11> %maxcore 8000
| 12>
| 13> !CPCM
| 14> %cpcm smd true
| 15> SMDsolvent "ACETONITRILE"
| 16> end
| 17>
| 18> * xyz 0 1
| 19> 6        4.790427000     -0.033865800     -0.529943200
| 20> 8        5.449345000     -1.206924000     -0.894594600
| 21> 8        4.978223000      1.323071000     -0.737377200
| 22> 6        3.506687600     -0.338741600      0.376153800
| 23> 6        2.222300000      0.400524800     -0.110681600
| 24> 6        0.900506800     -0.386389800      0.175703000
| 25> 6       -0.395261200      0.487294000      0.065549000
| 26> 6       -1.705693600     -0.364773800     -0.068373600
| 27> 6       -3.005136200      0.445344800      0.258164000
| 28> 6       -4.319880200     -0.214526000     -0.270540800
| 29> 9        3.211587400     -1.692050400      0.412735200
| 30> 9        3.741061800      0.055285800      1.689948800
| 31> 9        2.125696800      1.616867800      0.483236600
| 32> 9        2.314152400      0.589704000     -1.455769200
| 33> 9        0.794028800     -1.413561400     -0.700839000
| 34> 9        0.958350600     -0.884509000      1.435093400
| 35> 9       -0.498373400      1.260265600      1.173340200
| 36> 9       -0.299075000      1.289512600     -1.020910800
| 37> 9       -1.641790400     -1.418189000      0.779523800
| 38> 9       -1.792381400     -0.831391600     -1.336863600
| 39> 9       -2.918792200      1.679227200     -0.295171200
| 40> 9       -3.119771000      0.573779800      1.598579800
| 41> 9       -4.383115600     -1.504377600      0.089127600
| 42> 9       -5.365669800      0.430528600      0.260394200
| 43> 9       -4.396020400     -0.128550600     -1.602941800
| 44> 1        5.903122371     -2.014774547     -1.145719253
| 45> *
| 46>
| 47>                          ****END OF INPUT****
 Total Charge           Charge          ....    0
 Multiplicity           Mult            ....    1
 Number of Electrons    NEL             ....  200
Dispersion correction           -0.008570846
FINAL SINGLE POINT ENERGY     -1953.355634239482
Dispersion correction             ... done (  0.0 sec)
Dispersion correction           -0.008633446
FINAL SINGLE POINT ENERGY     -1953.410758861800
Dispersion correction             ... done (  0.0 sec)
Dispersion correction           -0.008670687
FINAL SINGLE POINT ENERGY     -1953.418134876329
Dispersion correction             ... done (  0.0 sec)
FINAL SINGLE POINT ENERGY     -1953.424215575698
FINAL SINGLE POINT ENERGY     -1953.424258092665
FINAL SINGLE POINT ENERGY     -1953.424428022618
FINAL SINGLE POINT ENERGY     -1953.425715633189
FINAL SINGLE POINT ENERGY     -1953.426770747085
FINAL SINGLE POINT ENERGY     -1953.428825245780
FINAL SINGLE POINT ENERGY     -1953.432873829461
FINAL SINGLE POINT ENERGY     -1953.467249634959
FINAL SINGLE POINT ENERGY     -1953.467215557079
FINAL SINGLE POINT ENERGY     -1953.466917320332
FINAL SINGLE POINT ENERGY     -1953.467273326737
FINAL SINGLE POINT ENERGY     -1953.467280993487
FINAL SINGLE POINT ENERGY     -1953.467284941926
FINAL SINGLE POINT ENERGY     -1953.467290445746
Dispersion correction             ... done (  0.1 sec)
Dispersion correction           -0.008682491
FINAL SINGLE POINT ENERGY     -1953.467293290991
Dispersion correction             ... done (  0.0 sec)
Dispersion correction           -0.008682417
FINAL SINGLE POINT ENERGY     -1953.467294377707
Dispersion correction             ... done (  0.0 sec)
                    ***********************HURRAY********************

CARTESIAN COORDINATES (ANGSTROEM)
---------------------------------
  C      4.745389   -0.036840   -0.242693
  O      5.124956   -0.870399   -1.191299
  O      5.268269    0.988817    0.078667
  C      3.453636   -0.528993    0.448632
  C      2.205280    0.139762   -0.190230
  C      0.858998   -0.531533    0.216407
  C     -0.371309    0.394853   -0.020099
  C     -1.721139   -0.385738   -0.035686
  C     -2.951528    0.538488    0.193291
  C     -4.305463   -0.101987   -0.217948
  F      3.323250   -1.863978    0.352260
  F      3.510955   -0.192077    1.744847
  F      2.188463    1.431067    0.175146
  F      2.330963    0.071954   -1.526448
  F      0.703238   -1.650161   -0.507651
  F      0.906355   -0.857399    1.515717
  F     -0.412285    1.312318    0.956887
  F     -0.224348    1.016745   -1.199176
  F     -1.703156   -1.313914    0.932630
  F     -1.850903   -0.997579   -1.221624
  F     -2.800047    1.666886   -0.517046
  F     -3.026654    0.845918    1.493966
  F     -4.428043   -1.311261    0.318028
  F     -5.290449    0.668172    0.228376
  F     -4.406007   -0.197416   -1.535794
  H      5.926106   -0.516923   -1.621337

 Multiplicity           Mult            ....    1
 Number of Electrons    NEL             ....  200
 Basis Dimension        Dim             ....  781

ORBITAL ENERGIES
----------------

  NO   OCC          E(Eh)            E(eV)
   0   2.0000     -24.735555      -673.0887
   1   2.0000     -24.735496      -673.0871
   2   2.0000     -24.735384      -673.0840
   3   2.0000     -24.735354      -673.0832
   4   2.0000     -24.734674      -673.0647
   5   2.0000     -24.734417      -673.0577
   6   2.0000     -24.734313      -673.0549
   7   2.0000     -24.733961      -673.0453
   8   2.0000     -24.733240      -673.0257
   9   2.0000     -24.733035      -673.0201
  10   2.0000     -24.732940      -673.0175
  11   2.0000     -24.732433      -673.0037
  12   2.0000     -24.732385      -673.0024
  13   2.0000     -24.723865      -672.7706
  14   2.0000     -24.721951      -672.7185
  15   2.0000     -19.197269      -522.3843
  16   2.0000     -19.141376      -520.8633
  17   2.0000     -10.442264      -284.1484
  18   2.0000     -10.391302      -282.7617
  19   2.0000     -10.390980      -282.7530
  20   2.0000     -10.390020      -282.7268
  21   2.0000     -10.388167      -282.6764
  22   2.0000     -10.385727      -282.6100
  23   2.0000     -10.376342      -282.3546
  24   2.0000     -10.326694      -281.0036
  25   2.0000      -1.364038       -37.1173
  26   2.0000      -1.346118       -36.6297
  27   2.0000      -1.333531       -36.2872
  28   2.0000      -1.321884       -35.9703
  29   2.0000      -1.318590       -35.8807
  30   2.0000      -1.316552       -35.8252
  31   2.0000      -1.309850       -35.6428
  32   2.0000      -1.277543       -34.7637
  33   2.0000      -1.273021       -34.6407
  34   2.0000      -1.268866       -34.5276
  35   2.0000      -1.267469       -34.4896
  36   2.0000      -1.262714       -34.3602
  37   2.0000      -1.259789       -34.2806
  38   2.0000      -1.259320       -34.2678
  39   2.0000      -1.251633       -34.0587
  40   2.0000      -1.152978       -31.3741
  41   2.0000      -1.066071       -29.0093
  42   2.0000      -0.852774       -23.2052
  43   2.0000      -0.836301       -22.7569
  44   2.0000      -0.811403       -22.0794
  45   2.0000      -0.777202       -21.1488
  46   2.0000      -0.735029       -20.0012
  47   2.0000      -0.697685       -18.9850
  48   2.0000      -0.679928       -18.5018
  49   2.0000      -0.662420       -18.0254
  50   2.0000      -0.646400       -17.5894
  51   2.0000      -0.643797       -17.5186
  52   2.0000      -0.633236       -17.2312
  53   2.0000      -0.628690       -17.1075
  54   2.0000      -0.627175       -17.0663
  55   2.0000      -0.622059       -16.9271
  56   2.0000      -0.611979       -16.6528
  57   2.0000      -0.606961       -16.5163
  58   2.0000      -0.602881       -16.4052
  59   2.0000      -0.597800       -16.2670
  60   2.0000      -0.592336       -16.1183
  61   2.0000      -0.585999       -15.9459
  62   2.0000      -0.578733       -15.7481
  63   2.0000      -0.574983       -15.6461
  64   2.0000      -0.563877       -15.3439
  65   2.0000      -0.512821       -13.9546
  66   2.0000      -0.508900       -13.8479
  67   2.0000      -0.506451       -13.7812
  68   2.0000      -0.500896       -13.6301
  69   2.0000      -0.498194       -13.5565
  70   2.0000      -0.493801       -13.4370
  71   2.0000      -0.490404       -13.3446
  72   2.0000      -0.487710       -13.2713
  73   2.0000      -0.483761       -13.1638
  74   2.0000      -0.478203       -13.0126
  75   2.0000      -0.478074       -13.0091
  76   2.0000      -0.475079       -12.9276
  77   2.0000      -0.471137       -12.8203
  78   2.0000      -0.468387       -12.7455
  79   2.0000      -0.463715       -12.6183
  80   2.0000      -0.460441       -12.5292
  81   2.0000      -0.456237       -12.4148
  82   2.0000      -0.451488       -12.2856
  83   2.0000      -0.448915       -12.2156
  84   2.0000      -0.444782       -12.1031
  85   2.0000      -0.442135       -12.0311
  86   2.0000      -0.441098       -12.0029
  87   2.0000      -0.438409       -11.9297
  88   2.0000      -0.435687       -11.8556
  89   2.0000      -0.434162       -11.8142
  90   2.0000      -0.430578       -11.7166
  91   2.0000      -0.429415       -11.6850
  92   2.0000      -0.428324       -11.6553
  93   2.0000      -0.423233       -11.5168
  94   2.0000      -0.415701       -11.3118
  95   2.0000      -0.397486       -10.8161
  96   2.0000      -0.368570       -10.0293
  97   2.0000      -0.351490        -9.5645
  98   2.0000      -0.336543        -9.1578
  99   2.0000      -0.303806        -8.2670
 100   0.0000      -0.063740        -1.7345
 101   0.0000      -0.015532        -0.4226
 102   0.0000      -0.000943        -0.0257
 103   0.0000       0.025697         0.6992
 104   0.0000       0.040260         1.0955

MULLIKEN ATOMIC CHARGES
-----------------------
   0 C :    0.280933
   1 O :   -0.365181
   2 O :   -0.325981
   3 C :    0.414687
   4 C :    0.287255
   5 C :    0.321034
   6 C :    0.327319
   7 C :    0.298474
   8 C :    0.331704
   9 C :    0.470966
  10 F :   -0.173606
  11 F :   -0.169750
  12 F :   -0.165501
  13 F :   -0.167708
  14 F :   -0.162928
  15 F :   -0.161527
  16 F :   -0.161486
  17 F :   -0.161805
  18 F :   -0.162386
  19 F :   -0.161432
  20 F :   -0.162318
  21 F :   -0.158509
  22 F :   -0.155396
  23 F :   -0.152782
  24 F :   -0.153351
  25 H :    0.389277
Sum of atomic charges:   -0.0000000

LOEWDIN ATOMIC CHARGES
----------------------
   0 C :   -0.496192
   1 O :    0.161324
   2 O :    0.134685
   3 C :   -0.464946
   4 C :   -0.467908
   5 C :   -0.471294
   6 C :   -0.471429
   7 C :   -0.472736
   8 C :   -0.479556
   9 C :   -0.680244
  10 F :    0.217892
  11 F :    0.223359
  12 F :    0.233213
  13 F :    0.229730
  14 F :    0.233114
  15 F :    0.234849
  16 F :    0.235041
  17 F :    0.234504
  18 F :    0.234067
  19 F :    0.234345
  20 F :    0.231254
  21 F :    0.233531
  22 F :    0.231678
  23 F :    0.232362
  24 F :    0.234211
  25 H :    0.235145

  Mayer bond orders larger than 0.100000
B(  0-C ,  1-O ) :   1.2961 B(  0-C ,  2-O ) :   2.0428 B(  0-C ,  3-C ) :   0.8814
B(  1-O , 25-H ) :   0.8171 B(  3-C ,  4-C ) :   0.9499 B(  3-C , 10-F ) :   1.0809
B(  3-C , 11-F ) :   1.1003 B(  4-C ,  5-C ) :   0.9314 B(  4-C , 12-F ) :   1.0824
B(  4-C , 13-F ) :   1.0780 B(  5-C ,  6-C ) :   0.9335 B(  5-C , 14-F ) :   1.0820
B(  5-C , 15-F ) :   1.0856 B(  6-C ,  7-C ) :   0.9301 B(  6-C , 16-F ) :   1.0835
B(  6-C , 17-F ) :   1.0808 B(  7-C ,  8-C ) :   0.9351 B(  7-C , 18-F ) :   1.0814
B(  7-C , 19-F ) :   1.0938 B(  8-C ,  9-C ) :   0.9527 B(  8-C , 20-F ) :   1.0824
B(  8-C , 21-F ) :   1.0985 B(  9-C , 22-F ) :   1.1294 B(  9-C , 23-F ) :   1.1334
B(  9-C , 24-F ) :   1.1437

Dispersion correction           -0.008682436
FINAL SINGLE POINT ENERGY     -1953.467294797287

DIPOLE MOMENT
-------------

Method             : SCF
Type of density    : Electron Density
Multiplicity       :   1
Irrep              :   0
Energy             : -1953.4586123608501111 Eh
Relativity type    :
Basis              : AO
                                X                 Y                 Z
Electronic contribution:    -14.821698034      -0.277220636       1.639371241
Nuclear contribution   :     15.535918960      -0.175534114      -2.490881894
                        -----------------------------------------
Total Dipole Moment    :      0.714220925      -0.452754750      -0.851510653
                        -----------------------------------------
Magnitude (a.u.)       :      1.200070326
Magnitude (Debye)      :      3.050336353

Rotational constants in cm-1:             0.021429             0.003744             0.003703
Rotational constants in MHz :           642.421025           112.240466           111.017976

                             ****ORCA TERMINATED NORMALLY****
TOTAL RUN TIME: 0 days 0 hours 58 minutes 9 seconds 271 msec
