                         Program Version 6.0.1  -  RELEASE   -
|  1> !TPSSh def2-TZVP freq d3 TightSCF SlowConv defgrid2
|  2>
|  3> %pal
|  4> nprocs 20
|  5> end
|  6>
|  7> %scf
|  8> MaxIter 1500
|  9> end
| 10>
| 11> %maxcore 8000
| 12>
| 13> !CPCM
| 14> %cpcm smd true
| 15> SMDsolvent "ACETONITRILE"
| 16> end
| 17>
| 18> * xyz -1 2
| 19> 6        3.844448000     -0.797963000     -1.079630000
| 20> 8        3.409352000     -1.604697000     -1.916931000
| 21> 8        4.887223000     -0.120273000     -1.040415000
| 22> 6        2.906484000     -0.566402000      0.173469000
| 23> 6        2.183657000      0.813513000      0.154834000
| 24> 6        0.984860000      0.906165000      1.050642000
| 25> 6       -0.439053000      1.215929000      0.690151000
| 26> 6       -1.269851000     -0.014549000      0.185739000
| 27> 6       -2.817708000      0.208223000      0.154339000
| 28> 6       -3.597725000     -0.797464000     -0.750786000
| 29> 9        1.921054000     -1.518271000      0.260672000
| 30> 9        3.615620000     -0.651422000      1.343819000
| 31> 9        3.083164000      1.783412000      0.508963000
| 32> 9        1.794817000      1.069005000     -1.126050000
| 33> 9        1.167274000      0.487749000      2.298674000
| 34> 9       -1.066144000      1.690288000      1.803266000
| 35> 9       -0.479791000      2.173922000     -0.267196000
| 36> 9       -1.014843000     -1.057640000      1.008671000
| 37> 9       -0.842780000     -0.337234000     -1.056052000
| 38> 9       -3.094457000      1.452426000     -0.293759000
| 39> 9       -3.298252000      0.085991000      1.409131000
| 40> 9       -3.238080000     -2.056670000     -0.479490000
| 41> 9       -4.907549000     -0.666278000     -0.514413000
| 42> 9       -3.374343000     -0.550641000     -2.043266000
| 43> *
| 44>
| 45>                          ****END OF INPUT****

CARTESIAN COORDINATES (ANGSTROEM)
---------------------------------
  C      3.844448   -0.797963   -1.079630
  O      3.409352   -1.604697   -1.916931
  O      4.887223   -0.120273   -1.040415
  C      2.906484   -0.566402    0.173469
  C      2.183657    0.813513    0.154834
  C      0.984860    0.906165    1.050642
  C     -0.439053    1.215929    0.690151
  C     -1.269851   -0.014549    0.185739
  C     -2.817708    0.208223    0.154339
  C     -3.597725   -0.797464   -0.750786
  F      1.921054   -1.518271    0.260672
  F      3.615620   -0.651422    1.343819
  F      3.083164    1.783412    0.508963
  F      1.794817    1.069005   -1.126050
  F      1.167274    0.487749    2.298674
  F     -1.066144    1.690288    1.803266
  F     -0.479791    2.173922   -0.267196
  F     -1.014843   -1.057640    1.008671
  F     -0.842780   -0.337234   -1.056052
  F     -3.094457    1.452426   -0.293759
  F     -3.298252    0.085991    1.409131
  F     -3.238080   -2.056670   -0.479490
  F     -4.907549   -0.666278   -0.514413
  F     -3.374343   -0.550641   -2.043266

 Total Charge           Charge          ....   -1
 Multiplicity           Mult            ....    2
 Number of Electrons    NEL             ....  191
 Basis Dimension        Dim             ....  744

ORBITAL ENERGIES
----------------
                 SPIN UP ORBITALS
  NO   OCC          E(Eh)            E(eV)
   0   1.0000     -24.662097      -671.0898
   1   1.0000     -24.659625      -671.0225
   2   1.0000     -24.658651      -670.9960
   3   1.0000     -24.657881      -670.9751
   4   1.0000     -24.656952      -670.9498
   5   1.0000     -24.656246      -670.9306
   6   1.0000     -24.655958      -670.9227
   7   1.0000     -24.655021      -670.8972
   8   1.0000     -24.648291      -670.7141
   9   1.0000     -24.647964      -670.7052
  10   1.0000     -24.635170      -670.3571
  11   1.0000     -24.627760      -670.1554
  12   1.0000     -24.613149      -669.7578
  13   1.0000     -24.612479      -669.7396
  14   1.0000     -18.987991      -516.6895
  15   1.0000     -18.986376      -516.6456
  16   1.0000     -10.393731      -282.8278
  17   1.0000     -10.340685      -281.3844
  18   1.0000     -10.337658      -281.3020
  19   1.0000     -10.337211      -281.2898
  20   1.0000     -10.314179      -280.6631
  21   1.0000     -10.276439      -279.6361
  22   1.0000     -10.254332      -279.0346
  23   1.0000     -10.189120      -277.2600
  24   1.0000      -1.320387       -35.9296
  25   1.0000      -1.291208       -35.1356
  26   1.0000      -1.275468       -34.7073
  27   1.0000      -1.269745       -34.5515
  28   1.0000      -1.258455       -34.2443
  29   1.0000      -1.250445       -34.0263
  30   1.0000      -1.234810       -33.6009
  31   1.0000      -1.229757       -33.4634
  32   1.0000      -1.229112       -33.4458
  33   1.0000      -1.225772       -33.3550
  34   1.0000      -1.218661       -33.1615
  35   1.0000      -1.212294       -32.9882
  36   1.0000      -1.196257       -32.5518
  37   1.0000      -1.173472       -31.9318
  38   1.0000      -0.996265       -27.1097
  39   1.0000      -0.914977       -24.8978
  40   1.0000      -0.825632       -22.4666
  41   1.0000      -0.804495       -21.8914
  42   1.0000      -0.765728       -20.8365
  43   1.0000      -0.729411       -19.8483
  44   1.0000      -0.685267       -18.6471
  45   1.0000      -0.661548       -18.0016
  46   1.0000      -0.632489       -17.2109
  47   1.0000      -0.617405       -16.8004
  48   1.0000      -0.614177       -16.7126
  49   1.0000      -0.607282       -16.5250
  50   1.0000      -0.593508       -16.1502
  51   1.0000      -0.588210       -16.0060
  52   1.0000      -0.587156       -15.9773
  53   1.0000      -0.577336       -15.7101
  54   1.0000      -0.572951       -15.5908
  55   1.0000      -0.561351       -15.2751
  56   1.0000      -0.560001       -15.2384
  57   1.0000      -0.549462       -14.9516
  58   1.0000      -0.548514       -14.9258
  59   1.0000      -0.530905       -14.4467
  60   1.0000      -0.519586       -14.1387
  61   1.0000      -0.494832       -13.4651
  62   1.0000      -0.481987       -13.1155
  63   1.0000      -0.477082       -12.9821
  64   1.0000      -0.472008       -12.8440
  65   1.0000      -0.467841       -12.7306
  66   1.0000      -0.464124       -12.6295
  67   1.0000      -0.456691       -12.4272
  68   1.0000      -0.452694       -12.3184
  69   1.0000      -0.449077       -12.2200
  70   1.0000      -0.442103       -12.0302
  71   1.0000      -0.439357       -11.9555
  72   1.0000      -0.436856       -11.8875
  73   1.0000      -0.433226       -11.7887
  74   1.0000      -0.432499       -11.7689
  75   1.0000      -0.429380       -11.6840
  76   1.0000      -0.421576       -11.4717
  77   1.0000      -0.421162       -11.4604
  78   1.0000      -0.417745       -11.3674
  79   1.0000      -0.414021       -11.2661
  80   1.0000      -0.411772       -11.2049
  81   1.0000      -0.410584       -11.1725
  82   1.0000      -0.409328       -11.1384
  83   1.0000      -0.399328       -10.8663
  84   1.0000      -0.397559       -10.8181
  85   1.0000      -0.388321       -10.5668
  86   1.0000      -0.381340       -10.3768
  87   1.0000      -0.378057       -10.2875
  88   1.0000      -0.373834       -10.1725
  89   1.0000      -0.362912        -9.8753
  90   1.0000      -0.346728        -9.4349
  91   1.0000      -0.328900        -8.9498
  92   1.0000      -0.249392        -6.7863
  93   1.0000      -0.231626        -6.3029
  94   1.0000      -0.215813        -5.8726
  95   1.0000      -0.215089        -5.8529
  96   0.0000      -0.011891        -0.3236
  97   0.0000       0.009994         0.2719
  98   0.0000       0.014997         0.4081
  99   0.0000       0.041999         1.1429
 100   0.0000       0.064874         1.7653

                 SPIN DOWN ORBITALS
  NO   OCC          E(Eh)            E(eV)
   0   1.0000     -24.659630      -671.0226
   1   1.0000     -24.658649      -670.9960
   2   1.0000     -24.657855      -670.9743
   3   1.0000     -24.657839      -670.9739
   4   1.0000     -24.656960      -670.9500
   5   1.0000     -24.656230      -670.9301
   6   1.0000     -24.655949      -670.9225
   7   1.0000     -24.655018      -670.8971
   8   1.0000     -24.647848      -670.7020
   9   1.0000     -24.647525      -670.6933
  10   1.0000     -24.635100      -670.3551
  11   1.0000     -24.626586      -670.1235
  12   1.0000     -24.612995      -669.7537
  13   1.0000     -24.612436      -669.7384
  14   1.0000     -18.987753      -516.6830
  15   1.0000     -18.986340      -516.6446
  16   1.0000     -10.393665      -282.8260
  17   1.0000     -10.340523      -281.3799
  18   1.0000     -10.338181      -281.3162
  19   1.0000     -10.336856      -281.2802
  20   1.0000     -10.315037      -280.6864
  21   1.0000     -10.275921      -279.6220
  22   1.0000     -10.238774      -278.6112
  23   1.0000     -10.189088      -277.2592
  24   1.0000      -1.320340       -35.9283
  25   1.0000      -1.290771       -35.1237
  26   1.0000      -1.275035       -34.6955
  27   1.0000      -1.268250       -34.5108
  28   1.0000      -1.255981       -34.1770
  29   1.0000      -1.244979       -33.8776
  30   1.0000      -1.234754       -33.5994
  31   1.0000      -1.229706       -33.4620
  32   1.0000      -1.228735       -33.4356
  33   1.0000      -1.225596       -33.3502
  34   1.0000      -1.218558       -33.1586
  35   1.0000      -1.211323       -32.9618
  36   1.0000      -1.194683       -32.5090
  37   1.0000      -1.173204       -31.9245
  38   1.0000      -0.996027       -27.1033
  39   1.0000      -0.914695       -24.8901
  40   1.0000      -0.818360       -22.2687
  41   1.0000      -0.795689       -21.6518
  42   1.0000      -0.764160       -20.7939
  43   1.0000      -0.723939       -19.6994
  44   1.0000      -0.681496       -18.5445
  45   1.0000      -0.660771       -17.9805
  46   1.0000      -0.628834       -17.1114
  47   1.0000      -0.616007       -16.7624
  48   1.0000      -0.612653       -16.6711
  49   1.0000      -0.607097       -16.5199
  50   1.0000      -0.592035       -16.1101
  51   1.0000      -0.586865       -15.9694
  52   1.0000      -0.583814       -15.8864
  53   1.0000      -0.576048       -15.6751
  54   1.0000      -0.571323       -15.5465
  55   1.0000      -0.559327       -15.2201
  56   1.0000      -0.557439       -15.1687
  57   1.0000      -0.548359       -14.9216
  58   1.0000      -0.547509       -14.8985
  59   1.0000      -0.529290       -14.4027
  60   1.0000      -0.518365       -14.1054
  61   1.0000      -0.481996       -13.1158
  62   1.0000      -0.477423       -12.9913
  63   1.0000      -0.472628       -12.8609
  64   1.0000      -0.468927       -12.7602
  65   1.0000      -0.466381       -12.6909
  66   1.0000      -0.463744       -12.6191
  67   1.0000      -0.454909       -12.3787
  68   1.0000      -0.451786       -12.2937
  69   1.0000      -0.447558       -12.1787
  70   1.0000      -0.440778       -11.9942
  71   1.0000      -0.438934       -11.9440
  72   1.0000      -0.436007       -11.8644
  73   1.0000      -0.432536       -11.7699
  74   1.0000      -0.430021       -11.7015
  75   1.0000      -0.428389       -11.6571
  76   1.0000      -0.421428       -11.4676
  77   1.0000      -0.419840       -11.4244
  78   1.0000      -0.417461       -11.3597
  79   1.0000      -0.413168       -11.2429
  80   1.0000      -0.410885       -11.1807
  81   1.0000      -0.409956       -11.1555
  82   1.0000      -0.408397       -11.1130
  83   1.0000      -0.398661       -10.8481
  84   1.0000      -0.396390       -10.7863
  85   1.0000      -0.387112       -10.5339
  86   1.0000      -0.380809       -10.3623
  87   1.0000      -0.376991       -10.2585
  88   1.0000      -0.373469       -10.1626
  89   1.0000      -0.362608        -9.8671
  90   1.0000      -0.343600        -9.3498
  91   1.0000      -0.327056        -8.8996
  92   1.0000      -0.231440        -6.2978
  93   1.0000      -0.217177        -5.9097
  94   1.0000      -0.214844        -5.8462
  95   0.0000      -0.124873        -3.3980
  96   0.0000      -0.007875        -0.2143
  97   0.0000       0.016075         0.4374
  98   0.0000       0.016296         0.4434
  99   0.0000       0.045777         1.2457

MULLIKEN ATOMIC CHARGES AND SPIN POPULATIONS
--------------------------------------------
   0 C :    0.169675   -0.000085
   1 O :   -0.480354    0.008214
   2 O :   -0.493026    0.001524
   3 C :    0.309101    0.013002
   4 C :    0.304791   -0.015480
   5 C :    0.102968    0.853909
   6 C :    0.353120   -0.024872
   7 C :    0.255632    0.035762
   8 C :    0.301926    0.006009
   9 C :    0.409429    0.002884
  10 F :   -0.201617    0.000124
  11 F :   -0.202505    0.003244
  12 F :   -0.176406    0.021936
  13 F :   -0.179979    0.000272
  14 F :   -0.137751    0.080167
  15 F :   -0.161030    0.007383
  16 F :   -0.153657    0.006579
  17 F :   -0.159511   -0.000857
  18 F :   -0.160309   -0.000483
  19 F :   -0.148859   -0.000199
  20 F :   -0.146613    0.000197
  21 F :   -0.136722   -0.000074
  22 F :   -0.134278    0.000803
  23 F :   -0.134025    0.000039
Sum of atomic charges         :   -1.0000000

LOEWDIN ATOMIC CHARGES AND SPIN POPULATIONS
-------------------------------------------
   0 C :   -0.691024    0.002459
   1 O :   -0.048846    0.007534
   2 O :   -0.054369    0.001234
   3 C :   -0.430753    0.015964
   4 C :   -0.476386    0.056195
   5 C :   -0.165644    0.658028
   6 C :   -0.480577    0.067885
   7 C :   -0.457397    0.026815
   8 C :   -0.465671    0.006896
   9 C :   -0.667809    0.001974
  10 F :    0.158591    0.001547
  11 F :    0.155137    0.003803
  12 F :    0.181942    0.024497
  13 F :    0.201198    0.001985
  14 F :    0.252069    0.103798
  15 F :    0.206552    0.008525
  16 F :    0.214845    0.008696
  17 F :    0.221646    0.000440
  18 F :    0.222612    0.000654
  19 F :    0.222653   -0.000141
  20 F :    0.223187    0.000303
  21 F :    0.225555   -0.000076
  22 F :    0.224841    0.000922
  23 F :    0.227648    0.000064

  Mayer bond orders larger than 0.100000
B(  0-C ,  1-O ) :   1.8695 B(  0-C ,  2-O ) :   1.8483 B(  0-C ,  3-C ) :   0.8463
B(  3-C ,  4-C ) :   0.9200 B(  3-C , 10-F ) :   1.0350 B(  3-C , 11-F ) :   1.0392
B(  4-C ,  5-C ) :   1.0421 B(  4-C , 12-F ) :   1.0695 B(  4-C , 13-F ) :   1.0607
B(  5-C ,  6-C ) :   1.0303 B(  5-C , 14-F ) :   1.1297 B(  6-C ,  7-C ) :   0.9346
B(  6-C , 15-F ) :   1.0727 B(  6-C , 16-F ) :   1.1091 B(  7-C ,  8-C ) :   0.9284
B(  7-C , 17-F ) :   1.0752 B(  7-C , 18-F ) :   1.0809 B(  8-C ,  9-C ) :   0.9685
B(  8-C , 19-F ) :   1.1018 B(  8-C , 20-F ) :   1.1106 B(  9-C , 21-F ) :   1.1589
B(  9-C , 22-F ) :   1.1611 B(  9-C , 23-F ) :   1.1698

Dispersion correction           -0.029585966
FINAL SINGLE POINT ENERGY     -1853.954860502029

DIPOLE MOMENT
-------------

Method             : SCF
Type of density    : Electron Density
Multiplicity       :   2
Irrep              :   0
Energy             : -1853.9252745359531218 Eh
Relativity type    :
Basis              : AO
                                X                 Y                 Z
Electronic contribution:    -15.229739736       2.549160456       4.421959143
Nuclear contribution   :      8.135752889      -1.126585232      -2.232646950
                        -----------------------------------------
Total Dipole Moment    :     -7.093986847       1.422575225       2.189312193
                        -----------------------------------------
Magnitude (a.u.)       :      7.559196884
Magnitude (Debye)      :     19.213951522

VIBRATIONAL FREQUENCIES
-----------------------

Scaling factor for frequencies =  1.000000000  (already applied!)

     0:       0.00 cm**-1
     1:       0.00 cm**-1
     2:       0.00 cm**-1
     3:       0.00 cm**-1
     4:       0.00 cm**-1
     5:       0.00 cm**-1
     6:     -15.81 cm**-1  ***imaginary mode***
     7:      19.00 cm**-1
     8:      29.67 cm**-1
     9:      31.34 cm**-1
    10:      47.75 cm**-1
    11:      58.24 cm**-1
    12:      62.50 cm**-1
    13:      86.77 cm**-1
    14:     105.48 cm**-1
    15:     115.56 cm**-1
    16:     160.70 cm**-1
    17:     172.57 cm**-1
    18:     180.48 cm**-1
    19:     195.35 cm**-1
    20:     215.39 cm**-1
    21:     223.82 cm**-1
    22:     234.14 cm**-1
    23:     235.74 cm**-1
    24:     247.30 cm**-1
    25:     276.02 cm**-1
    26:     279.27 cm**-1
    27:     307.33 cm**-1
    28:     320.38 cm**-1
    29:     335.72 cm**-1
    30:     347.66 cm**-1
    31:     354.93 cm**-1
    32:     359.85 cm**-1
    33:     367.38 cm**-1
    34:     391.85 cm**-1
    35:     426.02 cm**-1
    36:     442.17 cm**-1
    37:     499.35 cm**-1
    38:     515.41 cm**-1
    39:     537.16 cm**-1
    40:     545.80 cm**-1
    41:     560.42 cm**-1
    42:     573.18 cm**-1
    43:     588.54 cm**-1
    44:     618.03 cm**-1
    45:     643.78 cm**-1
    46:     678.35 cm**-1
    47:     686.80 cm**-1
    48:     717.79 cm**-1
    49:     767.37 cm**-1
    50:     779.03 cm**-1
    51:     854.01 cm**-1
    52:     978.30 cm**-1
    53:    1031.22 cm**-1
    54:    1070.86 cm**-1
    55:    1082.56 cm**-1
    56:    1090.75 cm**-1
    57:    1110.99 cm**-1
    58:    1118.20 cm**-1
    59:    1128.82 cm**-1
    60:    1135.74 cm**-1
    61:    1145.65 cm**-1
    62:    1156.37 cm**-1
    63:    1172.79 cm**-1
    64:    1175.75 cm**-1
    65:    1195.93 cm**-1
    66:    1246.87 cm**-1
    67:    1307.89 cm**-1
    68:    1315.08 cm**-1
    69:    1327.84 cm**-1
    70:    1371.33 cm**-1
    71:    1721.02 cm**-1

IR SPECTRUM
-----------

 Mode   freq       eps      Int      T**2         TX        TY        TZ
       cm**-1   L/(mol*cm) km/mol    a.u.
----------------------------------------------------------------------------
  7:     19.00   0.001319    6.66  0.021665  (-0.126755 -0.059306 -0.045623)
  8:     29.67   0.000068    0.34  0.000715  ( 0.026659 -0.001808  0.001060)
  9:     31.34   0.000315    1.59  0.003133  (-0.015397  0.037432 -0.038663)
 10:     47.75   0.000027    0.14  0.000175  (-0.012713  0.002232 -0.002857)
 11:     58.24   0.000093    0.47  0.000499  ( 0.002053 -0.020740  0.008031)
 12:     62.50   0.000092    0.46  0.000458  (-0.014206 -0.004202  0.015431)
 13:     86.77   0.000249    1.26  0.000894  (-0.002835 -0.025835  0.014783)
 14:    105.48   0.000723    3.66  0.002140  ( 0.002242 -0.033581  0.031738)
 15:    115.56   0.001104    5.58  0.002982  ( 0.044948 -0.030047  0.007697)
 16:    160.70   0.000150    0.76  0.000291  ( 0.006009 -0.000746  0.015958)
 17:    172.57   0.000795    4.02  0.001438  (-0.024219  0.025056  0.014962)
 18:    180.48   0.000943    4.76  0.001630  (-0.016825  0.011551 -0.034837)
 19:    195.35   0.001240    6.27  0.001981  ( 0.020548  0.029605 -0.026118)
 20:    215.39   0.000802    4.05  0.001162  (-0.025111 -0.008455 -0.021436)
 21:    223.82   0.000035    0.18  0.000048  (-0.001254  0.006431 -0.002346)
 22:    234.14   0.000128    0.65  0.000170  (-0.000019 -0.011395 -0.006365)
 23:    235.74   0.000089    0.45  0.000118  ( 0.008027  0.001891 -0.007102)
 24:    247.30   0.000238    1.20  0.000301  ( 0.012521 -0.004102  0.011270)
 25:    276.02   0.001381    6.98  0.001561  (-0.039255  0.001161  0.004325)
 26:    279.27   0.000199    1.00  0.000222  ( 0.005980  0.003235  0.013263)
 27:    307.33   0.000150    0.76  0.000152  (-0.009826  0.007420  0.000737)
 28:    320.38   0.000263    1.33  0.000256  (-0.013421  0.008710 -0.000506)
 29:    335.72   0.000118    0.60  0.000110  ( 0.001598 -0.003260  0.009841)
 30:    347.66   0.000035    0.18  0.000031  (-0.005369  0.001372 -0.000779)
 31:    354.93   0.000339    1.71  0.000298  (-0.010272  0.008456 -0.011015)
 32:    359.85   0.000306    1.55  0.000265  ( 0.013090 -0.006684 -0.007014)
 33:    367.38   0.000040    0.20  0.000034  (-0.004797 -0.002796  0.001774)
 34:    391.85   0.000584    2.95  0.000465  (-0.016729 -0.013512 -0.001562)
 35:    426.02   0.000153    0.77  0.000112  (-0.000845  0.009396 -0.004798)
 36:    442.17   0.001095    5.53  0.000773  ( 0.015775 -0.020219  0.010730)
 37:    499.35   0.000484    2.45  0.000303  (-0.009627 -0.011615  0.008661)
 38:    515.41   0.007092   35.84  0.004294  (-0.063490  0.015401  0.005075)
 39:    537.16   0.000540    2.73  0.000314  ( 0.012657  0.009144 -0.008369)
 40:    545.80   0.004137   20.91  0.002365  ( 0.037814 -0.020511  0.022685)
 41:    560.42   0.003809   19.25  0.002121  (-0.023468  0.031334  0.024254)
 42:    573.18   0.007041   35.58  0.003833  (-0.047783 -0.038630 -0.007603)
 43:    588.54   0.002036   10.29  0.001079  ( 0.025313 -0.018806  0.009222)
 44:    618.03   0.006689   33.81  0.003378  ( 0.057781 -0.006059  0.001543)
 45:    643.78   0.009968   50.37  0.004832  (-0.064643  0.017608  0.018523)
 46:    678.35   0.018599   93.99  0.008556  (-0.091104  0.008395  0.013621)
 47:    686.80   0.007782   39.33  0.003536  ( 0.020851  0.041978  0.036591)
 48:    717.79   0.019019   96.11  0.008269  (-0.061357 -0.052103 -0.042299)
 49:    767.37   0.007996   40.41  0.003252  (-0.051882 -0.022429 -0.007535)
 50:    779.03   0.021993  111.14  0.008810  (-0.048694  0.008104  0.079832)
 51:    854.01   0.010058   50.83  0.003675  (-0.035205 -0.039394 -0.029735)
 52:    978.30   0.003600   18.19  0.001148  ( 0.006479 -0.028900  0.016465)
 53:   1031.22   0.042074  212.63  0.012732  (-0.105599 -0.039317  0.005937)
 54:   1070.86   0.057982  293.01  0.016897  (-0.092164 -0.070425 -0.058674)
 55:   1082.56   0.016767   84.74  0.004833  ( 0.023370  0.052766  0.038769)
 56:   1090.75   0.030873  156.02  0.008833  ( 0.028126 -0.070301  0.055672)
 57:   1110.99   0.095554  482.89  0.026840  ( 0.030643 -0.121254 -0.105822)
 58:   1118.20   0.037094  187.46  0.010352  (-0.013442  0.059352 -0.081540)
 59:   1128.82   0.005742   29.02  0.001587  ( 0.004617  0.011479  0.037871)
 60:   1135.74   0.054296  274.39  0.014919  ( 0.014866 -0.061295  0.104598)
 61:   1145.65   0.069315  350.29  0.018881  ( 0.050121  0.017492 -0.126738)
 62:   1156.37   0.110756  559.72  0.029889  ( 0.063650 -0.137964  0.082484)
 63:   1172.79   0.005641   28.51  0.001501  ( 0.037833 -0.005792 -0.006003)
 64:   1175.75   0.079161  400.05  0.021011  (-0.038139 -0.062470  0.125114)
 65:   1195.93   0.022752  114.98  0.005937  (-0.073155  0.000402  0.024186)
 66:   1246.87   0.003802   19.21  0.000951  ( 0.025593 -0.007872 -0.015313)
 67:   1307.89   0.020111  101.64  0.004799  (-0.015975 -0.028046 -0.061293)
 68:   1315.08   0.016597   83.87  0.003938  ( 0.050267  0.005578  0.037156)
 69:   1327.84   0.086021  434.72  0.020216  ( 0.108448 -0.026888 -0.087934)
 70:   1371.33   0.003377   17.07  0.000768  (-0.026195  0.008612 -0.002854)
 71:   1721.02   0.156872  792.77  0.028445  ( 0.111785  0.108969  0.063834)

--------------------------
THERMOCHEMISTRY AT 298.15K
--------------------------

Temperature         ...   298.15 K
Pressure            ...     1.00 atm
Total Mass          ...   394.06 AMU
Quasi RRHO          ...     True
Cut-Off Frequency   ...     1.00 cm^-1

Throughout the following assumptions are being made:
  (1) The electronic state is orbitally nondegenerate
      but the spin degeneracy is treated
  (2) There are no thermally accessible electronically excited states
  (3) Hindered rotations indicated by low frequency modes are not
      treated as such but are treated as vibrations and this may
      cause some error
  (4) All equations used are the standard statistical mechanics
      equations for an ideal gas
  (5) All vibrations are strictly harmonic

freq.      19.00  E(vib)   ...       0.57
freq.      29.67  E(vib)   ...       0.55
freq.      31.34  E(vib)   ...       0.55
freq.      47.75  E(vib)   ...       0.53
freq.      58.24  E(vib)   ...       0.51
freq.      62.50  E(vib)   ...       0.51
freq.      86.77  E(vib)   ...       0.48
freq.     105.48  E(vib)   ...       0.45
freq.     115.56  E(vib)   ...       0.44
freq.     160.70  E(vib)   ...       0.39
freq.     172.57  E(vib)   ...       0.38
freq.     180.48  E(vib)   ...       0.37
freq.     195.35  E(vib)   ...       0.36
freq.     215.39  E(vib)   ...       0.34
freq.     223.82  E(vib)   ...       0.33
freq.     234.14  E(vib)   ...       0.32
freq.     235.74  E(vib)   ...       0.32
freq.     247.30  E(vib)   ...       0.31
freq.     276.02  E(vib)   ...       0.28
freq.     279.27  E(vib)   ...       0.28
freq.     307.33  E(vib)   ...       0.26
freq.     320.38  E(vib)   ...       0.25
freq.     335.72  E(vib)   ...       0.24
freq.     347.66  E(vib)   ...       0.23
freq.     354.93  E(vib)   ...       0.22
freq.     359.85  E(vib)   ...       0.22
freq.     367.38  E(vib)   ...       0.21
freq.     391.85  E(vib)   ...       0.20
freq.     426.02  E(vib)   ...       0.18
freq.     442.17  E(vib)   ...       0.17
freq.     499.35  E(vib)   ...       0.14
freq.     515.41  E(vib)   ...       0.13
freq.     537.16  E(vib)   ...       0.12
freq.     545.80  E(vib)   ...       0.12
freq.     560.42  E(vib)   ...       0.11
freq.     573.18  E(vib)   ...       0.11
freq.     588.54  E(vib)   ...       0.10
freq.     618.03  E(vib)   ...       0.09
freq.     643.78  E(vib)   ...       0.09
freq.     678.35  E(vib)   ...       0.08
freq.     686.80  E(vib)   ...       0.07
freq.     717.79  E(vib)   ...       0.07
freq.     767.37  E(vib)   ...       0.06
freq.     779.03  E(vib)   ...       0.05
freq.     854.01  E(vib)   ...       0.04
freq.     978.30  E(vib)   ...       0.03
freq.    1031.22  E(vib)   ...       0.02
freq.    1070.86  E(vib)   ...       0.02
freq.    1082.56  E(vib)   ...       0.02
freq.    1090.75  E(vib)   ...       0.02
freq.    1110.99  E(vib)   ...       0.01
freq.    1118.20  E(vib)   ...       0.01
freq.    1128.82  E(vib)   ...       0.01
freq.    1135.74  E(vib)   ...       0.01
freq.    1145.65  E(vib)   ...       0.01
freq.    1156.37  E(vib)   ...       0.01
freq.    1172.79  E(vib)   ...       0.01
freq.    1175.75  E(vib)   ...       0.01
freq.    1195.93  E(vib)   ...       0.01
freq.    1246.87  E(vib)   ...       0.01
freq.    1307.89  E(vib)   ...       0.01
freq.    1315.08  E(vib)   ...       0.01
freq.    1327.84  E(vib)   ...       0.01
freq.    1371.33  E(vib)   ...       0.01
freq.    1721.02  E(vib)   ...       0.00

------------
INNER ENERGY
------------

The inner energy is: U= E(el) + E(ZPE) + E(vib) + E(rot) + E(trans)
    E(el)   - is the total energy from the electronic structure calculation
              = E(kin-el) + E(nuc-el) + E(el-el) + E(nuc-nuc)
    E(ZPE)  - the the zero temperature vibrational energy from the frequency calculation
    E(vib)  - the the finite temperature correction to E(ZPE) due to population
              of excited vibrational states
    E(rot)  - is the rotational thermal energy
    E(trans)- is the translational thermal energy

Summary of contributions to the inner energy U:
Electronic energy                ...  -1853.95486050 Eh
Zero point energy                ...      0.09130750 Eh      57.30 kcal/mol
Thermal vibrational correction   ...      0.01925354 Eh      12.08 kcal/mol
Thermal rotational correction    ...      0.00141627 Eh       0.89 kcal/mol
Thermal translational correction ...      0.00141627 Eh       0.89 kcal/mol
-----------------------------------------------------------------------
Total thermal energy                  -1853.84146692 Eh

Summary of corrections to the electronic energy:
(perhaps to be used in another calculation)
Total thermal correction                  0.02208608 Eh      13.86 kcal/mol
Non-thermal (ZPE) correction              0.09130750 Eh      57.30 kcal/mol
-----------------------------------------------------------------------
Total correction                          0.11339358 Eh      71.16 kcal/mol

--------
ENTHALPY
--------

The enthalpy is H = U + kB*T
                kB is Boltzmann's constant
Total thermal energy              ...  -1853.84146692 Eh
Thermal Enthalpy correction       ...      0.00094421 Eh       0.59 kcal/mol
-----------------------------------------------------------------------
Total Enthalpy                    ...  -1853.84052271 Eh

Note: Only C1 symmetry has been detected, increase convergence thresholds
      if your molecule has a higher symmetry. Symmetry factor of 1.0 is
      used for the rotational entropy correction.

Note: Rotational entropy computed according to Herzberg
Infrared and Raman Spectra, Chapter V,1, Van Nostrand Reinhold, 1945
Point Group:  C1, Symmetry Number:   1
Rotational constants in cm-1:     0.016097     0.004866     0.004466

Vibrational entropy computed according to the QRRHO of S. Grimme
Chem.Eur.J. 2012 18 9955 using a reference frequency of 100.0 cm-1

-------
ENTROPY
-------

The entropy contributions are T*S = T*(S(el)+S(vib)+S(rot)+S(trans))
     S(el)   - electronic entropy
     S(vib)  - vibrational entropy
     S(rot)  - rotational entropy
     S(trans)- translational entropy
The entropies will be listed as multiplied by the temperature to get
units of energy

Electronic entropy                ...      0.00065446 Eh      0.41 kcal/mol
Vibrational entropy               ...      0.03465199 Eh     21.74 kcal/mol
Rotational entropy                ...      0.01652875 Eh     10.37 kcal/mol
Translational entropy             ...      0.02081341 Eh     13.06 kcal/mol
-----------------------------------------------------------------------
Final entropy term                ...      0.07264860 Eh     45.59 kcal/mol

                             ****ORCA TERMINATED NORMALLY****
TOTAL RUN TIME: 0 days 0 hours 23 minutes 9 seconds 93 msec
