                         Program Version 6.0.1  -  RELEASE   -
|  1> !TPSSh def2-TZVP opt d3 TightSCF SlowConv defgrid2
|  2>
|  3> %pal
|  4> nprocs 20
|  5> end
|  6>
|  7> %scf
|  8> MaxIter 1500
|  9> end
| 10>
| 11> %maxcore 8000
| 12>
| 13> !CPCM
| 14> %cpcm smd true
| 15> SMDsolvent "ACETONITRILE"
| 16> end
| 17>
| 18> * xyz 0 1
| 19> 6        4.790427000     -0.033865800     -0.529943200
| 20> 8        5.449345000     -1.206924000     -0.894594600
| 21> 8        4.978223000      1.323071000     -0.737377200
| 22> 6        3.506687600     -0.338741600      0.376153800
| 23> 6        2.222300000      0.400524800     -0.110681600
| 24> 6        0.900506800     -0.386389800      0.175703000
| 25> 6       -0.395261200      0.487294000      0.065549000
| 26> 6       -1.705693600     -0.364773800     -0.068373600
| 27> 6       -3.005136200      0.445344800      0.258164000
| 28> 6       -4.319880200     -0.214526000     -0.270540800
| 29> 9        3.211587400     -1.692050400      0.412735200
| 30> 9        3.741061800      0.055285800      1.689948800
| 31> 9        2.125696800      1.616867800      0.483236600
| 32> 9        2.314152400      0.589704000     -1.455769200
| 33> 9        0.794028800     -1.413561400     -0.700839000
| 34> 9        0.958350600     -0.884509000      1.435093400
| 35> 9       -0.498373400      1.260265600      1.173340200
| 36> 9       -0.299075000      1.289512600     -1.020910800
| 37> 9       -1.641790400     -1.418189000      0.779523800
| 38> 9       -1.792381400     -0.831391600     -1.336863600
| 39> 9       -2.918792200      1.679227200     -0.295171200
| 40> 9       -3.119771000      0.573779800      1.598579800
| 41> 9       -4.383115600     -1.504377600      0.089127600
| 42> 9       -5.365669800      0.430528600      0.260394200
| 43> 9       -4.396020400     -0.128550600     -1.602941800
| 44> 1        5.903122371     -2.014774547     -1.145719253
| 45> *
| 46>
| 47>                          ****END OF INPUT****
 Total Charge           Charge          ....    0
 Multiplicity           Mult            ....    1
 Number of Electrons    NEL             ....  200
Dispersion correction           -0.030931883
FINAL SINGLE POINT ENERGY     -1954.242958334237
Dispersion correction             ... done (  0.0 sec)
Dispersion correction           -0.031075363
FINAL SINGLE POINT ENERGY     -1954.292307314155
Dispersion correction             ... done (  0.0 sec)
Dispersion correction           -0.031151092
FINAL SINGLE POINT ENERGY     -1954.296765166537
Dispersion correction             ... done (  0.0 sec)
FINAL SINGLE POINT ENERGY     -1954.302445759812
FINAL SINGLE POINT ENERGY     -1954.303007911677
FINAL SINGLE POINT ENERGY     -1954.302199772771
FINAL SINGLE POINT ENERGY     -1954.304067733258
FINAL SINGLE POINT ENERGY     -1954.306469387288
FINAL SINGLE POINT ENERGY     -1954.311826638782
FINAL SINGLE POINT ENERGY     -1954.321758316465
FINAL SINGLE POINT ENERGY     -1954.345209905565
FINAL SINGLE POINT ENERGY     -1954.345241143963
FINAL SINGLE POINT ENERGY     -1954.345262401268
FINAL SINGLE POINT ENERGY     -1954.345276826897
FINAL SINGLE POINT ENERGY     -1954.345310809706
FINAL SINGLE POINT ENERGY     -1954.345325498992
FINAL SINGLE POINT ENERGY     -1954.345333451487
Dispersion correction             ... done (  0.0 sec)
Dispersion correction           -0.031173753
FINAL SINGLE POINT ENERGY     -1954.345335403581
Dispersion correction             ... done (  0.0 sec)
Dispersion correction           -0.031172318
FINAL SINGLE POINT ENERGY     -1954.345336587995
Dispersion correction             ... done (  0.0 sec)
                    ***********************HURRAY********************

CARTESIAN COORDINATES (ANGSTROEM)
---------------------------------
  C      4.787978   -0.031642   -0.227908
  O      5.164428   -0.826267   -1.220449
  O      5.327449    0.972628    0.148858
  C      3.483805   -0.547478    0.438770
  C      2.222374    0.125538   -0.190029
  C      0.863120   -0.539879    0.217814
  C     -0.375873    0.390429   -0.020701
  C     -1.739712   -0.383465   -0.028415
  C     -2.980012    0.547426    0.184294
  C     -4.346227   -0.096282   -0.217860
  F      3.367498   -1.891327    0.314432
  F      3.532910   -0.240279    1.752496
  F      2.213071    1.424926    0.182361
  F      2.341114    0.066756   -1.535982
  F      0.705256   -1.669311   -0.505675
  F      0.906554   -0.867676    1.525896
  F     -0.409082    1.320727    0.956974
  F     -0.231277    1.013399   -1.209479
  F     -1.729221   -1.305214    0.958317
  F     -1.868278   -1.019201   -1.211778
  F     -2.828979    1.673316   -0.546449
  F     -3.053551    0.881748    1.487868
  F     -4.486992   -1.301122    0.344409
  F     -5.334147    0.695462    0.210829
  F     -4.446208   -0.220271   -1.542486
  H      5.968534   -0.454162   -1.638283

 Multiplicity           Mult            ....    1
 Number of Electrons    NEL             ....  200
 Basis Dimension        Dim             ....  781

ORBITAL ENERGIES
----------------

  NO   OCC          E(Eh)            E(eV)
   0   2.0000     -24.663155      -671.1186
   1   2.0000     -24.663145      -671.1183
   2   2.0000     -24.662943      -671.1128
   3   2.0000     -24.662820      -671.1094
   4   2.0000     -24.662726      -671.1069
   5   2.0000     -24.662393      -671.0978
   6   2.0000     -24.661822      -671.0823
   7   2.0000     -24.661726      -671.0797
   8   2.0000     -24.661477      -671.0729
   9   2.0000     -24.660965      -671.0590
  10   2.0000     -24.660956      -671.0587
  11   2.0000     -24.660296      -671.0408
  12   2.0000     -24.659880      -671.0295
  13   2.0000     -24.651511      -670.8017
  14   2.0000     -24.649721      -670.7530
  15   2.0000     -19.133769      -520.6563
  16   2.0000     -19.080162      -519.1976
  17   2.0000     -10.397640      -282.9342
  18   2.0000     -10.348538      -281.5980
  19   2.0000     -10.348119      -281.5866
  20   2.0000     -10.347134      -281.5598
  21   2.0000     -10.346280      -281.5366
  22   2.0000     -10.342767      -281.4410
  23   2.0000     -10.333239      -281.1817
  24   2.0000     -10.281309      -279.7686
  25   2.0000      -1.324095       -36.0305
  26   2.0000      -1.306588       -35.5541
  27   2.0000      -1.294628       -35.2286
  28   2.0000      -1.283629       -34.9293
  29   2.0000      -1.280386       -34.8411
  30   2.0000      -1.278531       -34.7906
  31   2.0000      -1.271502       -34.5993
  32   2.0000      -1.241055       -33.7708
  33   2.0000      -1.236753       -33.6538
  34   2.0000      -1.233085       -33.5539
  35   2.0000      -1.231479       -33.5102
  36   2.0000      -1.226891       -33.3854
  37   2.0000      -1.224249       -33.3135
  38   2.0000      -1.223546       -33.2944
  39   2.0000      -1.215750       -33.0822
  40   2.0000      -1.119730       -30.4694
  41   2.0000      -1.035873       -28.1875
  42   2.0000      -0.830498       -22.5990
  43   2.0000      -0.814514       -22.1641
  44   2.0000      -0.790327       -21.5059
  45   2.0000      -0.756914       -20.5967
  46   2.0000      -0.715479       -19.4692
  47   2.0000      -0.678320       -18.4580
  48   2.0000      -0.660078       -17.9616
  49   2.0000      -0.643239       -17.5034
  50   2.0000      -0.627262       -17.0687
  51   2.0000      -0.624240       -16.9864
  52   2.0000      -0.613949       -16.7064
  53   2.0000      -0.609436       -16.5836
  54   2.0000      -0.608094       -16.5471
  55   2.0000      -0.602918       -16.4062
  56   2.0000      -0.593024       -16.1370
  57   2.0000      -0.588360       -16.0101
  58   2.0000      -0.584677       -15.9099
  59   2.0000      -0.579247       -15.7621
  60   2.0000      -0.574793       -15.6409
  61   2.0000      -0.567872       -15.4526
  62   2.0000      -0.561042       -15.2667
  63   2.0000      -0.556985       -15.1563
  64   2.0000      -0.546838       -14.8802
  65   2.0000      -0.498169       -13.5559
  66   2.0000      -0.490915       -13.3585
  67   2.0000      -0.488690       -13.2979
  68   2.0000      -0.483322       -13.1519
  69   2.0000      -0.480704       -13.0806
  70   2.0000      -0.476815       -12.9748
  71   2.0000      -0.473592       -12.8871
  72   2.0000      -0.470975       -12.8159
  73   2.0000      -0.466770       -12.7015
  74   2.0000      -0.462095       -12.5742
  75   2.0000      -0.461499       -12.5580
  76   2.0000      -0.459108       -12.4930
  77   2.0000      -0.454915       -12.3789
  78   2.0000      -0.452139       -12.3033
  79   2.0000      -0.448139       -12.1945
  80   2.0000      -0.444276       -12.0894
  81   2.0000      -0.440925       -11.9982
  82   2.0000      -0.435999       -11.8641
  83   2.0000      -0.433307       -11.7909
  84   2.0000      -0.429205       -11.6793
  85   2.0000      -0.426714       -11.6115
  86   2.0000      -0.425687       -11.5835
  87   2.0000      -0.423514       -11.5244
  88   2.0000      -0.421893       -11.4803
  89   2.0000      -0.418837       -11.3971
  90   2.0000      -0.417718       -11.3667
  91   2.0000      -0.414582       -11.2813
  92   2.0000      -0.413762       -11.2590
  93   2.0000      -0.410979       -11.1833
  94   2.0000      -0.404211       -10.9991
  95   2.0000      -0.387232       -10.5371
  96   2.0000      -0.360194        -9.8014
  97   2.0000      -0.340553        -9.2669
  98   2.0000      -0.330322        -8.9885
  99   2.0000      -0.296320        -8.0633
 100   0.0000      -0.066979        -1.8226
 101   0.0000      -0.021550        -0.5864
 102   0.0000      -0.009006        -0.2451
 103   0.0000       0.015795         0.4298
 104   0.0000       0.029730         0.8090

MULLIKEN ATOMIC CHARGES
-----------------------
   0 C :    0.223201
   1 O :   -0.338161
   2 O :   -0.287470
   3 C :    0.377095
   4 C :    0.266404
   5 C :    0.290393
   6 C :    0.297362
   7 C :    0.272455
   8 C :    0.296077
   9 C :    0.408616
  10 F :   -0.158955
  11 F :   -0.154207
  12 F :   -0.151892
  13 F :   -0.152829
  14 F :   -0.148316
  15 F :   -0.146524
  16 F :   -0.146555
  17 F :   -0.146716
  18 F :   -0.147616
  19 F :   -0.146548
  20 F :   -0.146189
  21 F :   -0.142579
  22 F :   -0.135234
  23 F :   -0.132028
  24 F :   -0.132537
  25 H :    0.382752
Sum of atomic charges:    0.0000000

LOEWDIN ATOMIC CHARGES
----------------------
   0 C :   -0.491146
   1 O :    0.157273
   2 O :    0.136568
   3 C :   -0.452547
   4 C :   -0.455601
   5 C :   -0.459154
   6 C :   -0.459462
   7 C :   -0.460795
   8 C :   -0.466609
   9 C :   -0.668197
  10 F :    0.210665
  11 F :    0.217029
  12 F :    0.226174
  13 F :    0.224093
  14 F :    0.226986
  15 F :    0.228892
  16 F :    0.228827
  17 F :    0.228781
  18 F :    0.228251
  19 F :    0.228768
  20 F :    0.225695
  21 F :    0.227600
  22 F :    0.226978
  23 F :    0.227513
  24 F :    0.229326
  25 H :    0.234095

  Mayer bond orders larger than 0.100000
B(  0-C ,  1-O ) :   1.3155 B(  0-C ,  2-O ) :   2.0733 B(  0-C ,  3-C ) :   0.9053
B(  1-O , 25-H ) :   0.8193 B(  3-C ,  4-C ) :   0.9582 B(  3-C , 10-F ) :   1.0995
B(  3-C , 11-F ) :   1.1193 B(  4-C ,  5-C ) :   0.9499 B(  4-C , 12-F ) :   1.0935
B(  4-C , 13-F ) :   1.0901 B(  5-C ,  6-C ) :   0.9551 B(  5-C , 14-F ) :   1.0964
B(  5-C , 15-F ) :   1.0988 B(  6-C ,  7-C ) :   0.9486 B(  6-C , 16-F ) :   1.0966
B(  6-C , 17-F ) :   1.0951 B(  7-C ,  8-C ) :   0.9435 B(  7-C , 18-F ) :   1.0961
B(  7-C , 19-F ) :   1.1048 B(  8-C ,  9-C ) :   0.9707 B(  8-C , 20-F ) :   1.1005
B(  8-C , 21-F ) :   1.1133 B(  9-C , 22-F ) :   1.1598 B(  9-C , 23-F ) :   1.1627
B(  9-C , 24-F ) :   1.1717

Dispersion correction           -0.031172408
FINAL SINGLE POINT ENERGY     -1954.345337568961

DIPOLE MOMENT
-------------

Method             : SCF
Type of density    : Electron Density
Multiplicity       :   1
Irrep              :   0
Energy             : -1954.3141651608914344 Eh
Relativity type    :
Basis              : AO
                                X                 Y                 Z
Electronic contribution:    -14.947221251      -0.306548649       1.595902384
Nuclear contribution   :     15.675948152      -0.086623298      -2.475132494
                        -----------------------------------------
Total Dipole Moment    :      0.728726901      -0.393171947      -0.879230110
                        -----------------------------------------
Magnitude (a.u.)       :      1.207755217
Magnitude (Debye)      :      3.069869795

Rotational constants in cm-1:             0.021210             0.003676             0.003637
Rotational constants in MHz :           635.869159           110.198022           109.021496

                             ****ORCA TERMINATED NORMALLY****
TOTAL RUN TIME: 0 days 0 hours 58 minutes 32 seconds 204 msec
