                         Program Version 6.0.1  -  RELEASE   -
|  1> !r2scanh def2-TZVP opt d3 TightSCF SlowConv defgrid2
|  2>
|  3> %pal
|  4> nprocs 20
|  5> end
|  6>
|  7> %scf
|  8> MaxIter 1500
|  9> end
| 10>
| 11> %maxcore 8000
| 12>
| 13> !CPCM
| 14> %cpcm smd true
| 15> SMDsolvent "ACETONITRILE"
| 16> end
| 17>
| 18> * xyz 0 2
| 19> 6        4.790427000     -0.033865800     -0.529943200
| 20> 8        5.449345000     -1.206924000     -0.894594600
| 21> 8        4.978223000      1.323071000     -0.737377200
| 22> 6        3.506687600     -0.338741600      0.376153800
| 23> 6        2.222300000      0.400524800     -0.110681600
| 24> 6        0.900506800     -0.386389800      0.175703000
| 25> 6       -0.395261200      0.487294000      0.065549000
| 26> 6       -1.705693600     -0.364773800     -0.068373600
| 27> 6       -3.005136200      0.445344800      0.258164000
| 28> 6       -4.319880200     -0.214526000     -0.270540800
| 29> 9        3.211587400     -1.692050400      0.412735200
| 30> 9        3.741061800      0.055285800      1.689948800
| 31> 9        2.125696800      1.616867800      0.483236600
| 32> 9        2.314152400      0.589704000     -1.455769200
| 33> 9        0.794028800     -1.413561400     -0.700839000
| 34> 9       -0.498373400      1.260265600      1.173340200
| 35> 9       -0.299075000      1.289512600     -1.020910800
| 36> 9       -1.641790400     -1.418189000      0.779523800
| 37> 9       -1.792381400     -0.831391600     -1.336863600
| 38> 9       -2.918792200      1.679227200     -0.295171200
| 39> 9       -3.119771000      0.573779800      1.598579800
| 40> 9       -4.383115600     -1.504377600      0.089127600
| 41> 9       -5.365669800      0.430528600      0.260394200
| 42> 9       -4.396020400     -0.128550600     -1.602941800
| 43> 1        5.903122371     -2.014774547     -1.145719253
| 44> *
| 45>
| 46>                          ****END OF INPUT****
 Total Charge           Charge          ....    0
 Multiplicity           Mult            ....    2
 Number of Electrons    NEL             ....  191
Dispersion correction           -0.008047071
FINAL SINGLE POINT ENERGY     -1853.446463271861
Dispersion correction             ... done (  0.0 sec)
Dispersion correction           -0.008109488
FINAL SINGLE POINT ENERGY     -1853.502184871107
Dispersion correction             ... done (  0.0 sec)
Dispersion correction           -0.008147695
FINAL SINGLE POINT ENERGY     -1853.514676229143
Dispersion correction             ... done (  0.0 sec)
FINAL SINGLE POINT ENERGY     -1853.520910729198
FINAL SINGLE POINT ENERGY     -1853.521970561457
FINAL SINGLE POINT ENERGY     -1853.524843986007
FINAL SINGLE POINT ENERGY     -1853.526577840080
FINAL SINGLE POINT ENERGY     -1853.533173077539
FINAL SINGLE POINT ENERGY     -1853.536136481186
FINAL SINGLE POINT ENERGY     -1853.533553404465
FINAL SINGLE POINT ENERGY     -1853.569611339873
FINAL SINGLE POINT ENERGY     -1853.569640492483
FINAL SINGLE POINT ENERGY     -1853.569678326577
FINAL SINGLE POINT ENERGY     -1853.569711792884
FINAL SINGLE POINT ENERGY     -1853.569742314309
FINAL SINGLE POINT ENERGY     -1853.569761389558
FINAL SINGLE POINT ENERGY     -1853.569768769991
Dispersion correction             ... done (  0.0 sec)
Dispersion correction           -0.008488807
FINAL SINGLE POINT ENERGY     -1853.569776187542
Dispersion correction             ... done (  0.0 sec)
Dispersion correction           -0.008489495
FINAL SINGLE POINT ENERGY     -1853.569778022746
Dispersion correction             ... done (  0.0 sec)
                    ***********************HURRAY********************

CARTESIAN COORDINATES (ANGSTROEM)
---------------------------------
  C      4.157110   -0.309014    0.671200
  O      4.957632   -1.119770    0.004644
  O      4.468072    0.519944    1.473896
  C      2.687073   -0.540711    0.266484
  C      2.270428    0.266358   -0.992766
  C      0.850179    0.047938   -1.412883
  C     -0.376880    0.753264   -0.938324
  C     -1.462944   -0.229997   -0.396735
  C     -2.541210    0.466267    0.482288
  C     -3.843411   -0.363859    0.649442
  F      2.453397   -1.842632    0.010249
  F      1.895772   -0.154714    1.281017
  F      2.490187    1.570044   -0.735418
  F      3.074836   -0.118661   -2.005909
  F      0.638333   -0.990057   -2.196308
  F     -0.059567    1.618524    0.041123
  F     -0.937535    1.449348   -1.955621
  F     -0.856782   -1.168335    0.349248
  F     -2.058987   -0.831484   -1.437914
  F     -2.878644    1.647214   -0.057908
  F     -2.029096    0.675840    1.702252
  F     -3.554852   -1.616015    0.987795
  F     -4.578677    0.182735    1.610163
  F     -4.548470   -0.368266   -0.473257
  H      5.880215   -0.940672    0.265976

 Multiplicity           Mult            ....    2
 Number of Electrons    NEL             ....  191
 Basis Dimension        Dim             ....  750

ORBITAL ENERGIES
----------------
                 SPIN UP ORBITALS
  NO   OCC          E(Eh)            E(eV)
   0   1.0000     -24.747156      -673.4044
   1   1.0000     -24.733841      -673.0420
   2   1.0000     -24.733708      -673.0384
   3   1.0000     -24.733524      -673.0334
   4   1.0000     -24.732891      -673.0162
   5   1.0000     -24.732597      -673.0082
   6   1.0000     -24.732011      -672.9922
   7   1.0000     -24.731597      -672.9810
   8   1.0000     -24.730930      -672.9628
   9   1.0000     -24.725194      -672.8067
  10   1.0000     -24.723991      -672.7740
  11   1.0000     -24.722726      -672.7396
  12   1.0000     -24.721375      -672.7028
  13   1.0000     -24.721169      -672.6972
  14   1.0000     -19.195359      -522.3323
  15   1.0000     -19.139762      -520.8194
  16   1.0000     -10.441397      -284.1248
  17   1.0000     -10.388224      -282.6779
  18   1.0000     -10.386986      -282.6443
  19   1.0000     -10.386751      -282.6379
  20   1.0000     -10.383155      -282.5400
  21   1.0000     -10.371198      -282.2147
  22   1.0000     -10.324732      -280.9502
  23   1.0000     -10.313073      -280.6330
  24   1.0000      -1.363084       -37.0914
  25   1.0000      -1.336145       -36.3584
  26   1.0000      -1.324708       -36.0471
  27   1.0000      -1.317303       -35.8456
  28   1.0000      -1.312903       -35.7259
  29   1.0000      -1.306536       -35.5527
  30   1.0000      -1.301036       -35.4030
  31   1.0000      -1.274475       -34.6802
  32   1.0000      -1.268365       -34.5140
  33   1.0000      -1.266198       -34.4550
  34   1.0000      -1.258621       -34.2488
  35   1.0000      -1.257996       -34.2318
  36   1.0000      -1.253624       -34.1129
  37   1.0000      -1.247413       -33.9438
  38   1.0000      -1.151087       -31.3227
  39   1.0000      -1.064106       -28.9558
  40   1.0000      -0.860203       -23.4073
  41   1.0000      -0.836201       -22.7542
  42   1.0000      -0.807741       -21.9797
  43   1.0000      -0.774193       -21.0669
  44   1.0000      -0.733251       -19.9528
  45   1.0000      -0.693185       -18.8625
  46   1.0000      -0.673556       -18.3284
  47   1.0000      -0.658061       -17.9068
  48   1.0000      -0.642523       -17.4839
  49   1.0000      -0.638733       -17.3808
  50   1.0000      -0.630180       -17.1481
  51   1.0000      -0.619960       -16.8700
  52   1.0000      -0.619210       -16.8495
  53   1.0000      -0.614827       -16.7303
  54   1.0000      -0.604624       -16.4527
  55   1.0000      -0.603439       -16.4204
  56   1.0000      -0.601615       -16.3708
  57   1.0000      -0.588826       -16.0228
  58   1.0000      -0.586294       -15.9539
  59   1.0000      -0.573940       -15.6177
  60   1.0000      -0.569521       -15.4974
  61   1.0000      -0.562062       -15.2945
  62   1.0000      -0.527010       -14.3407
  63   1.0000      -0.510267       -13.8851
  64   1.0000      -0.504134       -13.7182
  65   1.0000      -0.499922       -13.6036
  66   1.0000      -0.493099       -13.4179
  67   1.0000      -0.488653       -13.2969
  68   1.0000      -0.487245       -13.2586
  69   1.0000      -0.483668       -13.1613
  70   1.0000      -0.480537       -13.0761
  71   1.0000      -0.475630       -12.9425
  72   1.0000      -0.472321       -12.8525
  73   1.0000      -0.470852       -12.8125
  74   1.0000      -0.465463       -12.6659
  75   1.0000      -0.463048       -12.6002
  76   1.0000      -0.458060       -12.4644
  77   1.0000      -0.456895       -12.4328
  78   1.0000      -0.453713       -12.3462
  79   1.0000      -0.450905       -12.2698
  80   1.0000      -0.447597       -12.1797
  81   1.0000      -0.440221       -11.9790
  82   1.0000      -0.439238       -11.9523
  83   1.0000      -0.437499       -11.9050
  84   1.0000      -0.433018       -11.7830
  85   1.0000      -0.431372       -11.7382
  86   1.0000      -0.427886       -11.6434
  87   1.0000      -0.426072       -11.5940
  88   1.0000      -0.424502       -11.5513
  89   1.0000      -0.415121       -11.2960
  90   1.0000      -0.398026       -10.8309
  91   1.0000      -0.370757       -10.0888
  92   1.0000      -0.350221        -9.5300
  93   1.0000      -0.344932        -9.3861
  94   1.0000      -0.306966        -8.3530
  95   1.0000      -0.267891        -7.2897
  96   0.0000      -0.055066        -1.4984
  97   0.0000      -0.016481        -0.4485
  98   0.0000       0.012780         0.3478
  99   0.0000       0.029726         0.8089
 100   0.0000       0.057178         1.5559

                 SPIN DOWN ORBITALS
  NO   OCC          E(Eh)            E(eV)
   0   1.0000     -24.742010      -673.2643
   1   1.0000     -24.733844      -673.0421
   2   1.0000     -24.733586      -673.0351
   3   1.0000     -24.733471      -673.0320
   4   1.0000     -24.732893      -673.0162
   5   1.0000     -24.732594      -673.0081
   6   1.0000     -24.731988      -672.9916
   7   1.0000     -24.731589      -672.9807
   8   1.0000     -24.730804      -672.9594
   9   1.0000     -24.724703      -672.7934
  10   1.0000     -24.723438      -672.7590
  11   1.0000     -24.721348      -672.7021
  12   1.0000     -24.721200      -672.6980
  13   1.0000     -24.721157      -672.6969
  14   1.0000     -19.195310      -522.3309
  15   1.0000     -19.139505      -520.8124
  16   1.0000     -10.441366      -284.1240
  17   1.0000     -10.389241      -282.7056
  18   1.0000     -10.386733      -282.6374
  19   1.0000     -10.386429      -282.6291
  20   1.0000     -10.384306      -282.5713
  21   1.0000     -10.370364      -282.1919
  22   1.0000     -10.324638      -280.9477
  23   1.0000     -10.296167      -280.1730
  24   1.0000      -1.363049       -37.0905
  25   1.0000      -1.335364       -36.3371
  26   1.0000      -1.323217       -36.0066
  27   1.0000      -1.317046       -35.8386
  28   1.0000      -1.311948       -35.6999
  29   1.0000      -1.304675       -35.5020
  30   1.0000      -1.294364       -35.2214
  31   1.0000      -1.274394       -34.6780
  32   1.0000      -1.268332       -34.5131
  33   1.0000      -1.265898       -34.4468
  34   1.0000      -1.258321       -34.2407
  35   1.0000      -1.257266       -34.2119
  36   1.0000      -1.251959       -34.0675
  37   1.0000      -1.246912       -33.9302
  38   1.0000      -1.150898       -31.3175
  39   1.0000      -1.063760       -28.9464
  40   1.0000      -0.847832       -23.0707
  41   1.0000      -0.830773       -22.6065
  42   1.0000      -0.804736       -21.8980
  43   1.0000      -0.766484       -20.8571
  44   1.0000      -0.731885       -19.9156
  45   1.0000      -0.690091       -18.7783
  46   1.0000      -0.668515       -18.1912
  47   1.0000      -0.656264       -17.8578
  48   1.0000      -0.641414       -17.4538
  49   1.0000      -0.637605       -17.3501
  50   1.0000      -0.629961       -17.1421
  51   1.0000      -0.618202       -16.8221
  52   1.0000      -0.617535       -16.8040
  53   1.0000      -0.610716       -16.6184
  54   1.0000      -0.603422       -16.4199
  55   1.0000      -0.601730       -16.3739
  56   1.0000      -0.600426       -16.3384
  57   1.0000      -0.587272       -15.9805
  58   1.0000      -0.585614       -15.9354
  59   1.0000      -0.572768       -15.5858
  60   1.0000      -0.567579       -15.4446
  61   1.0000      -0.561165       -15.2701
  62   1.0000      -0.510099       -13.8805
  63   1.0000      -0.503957       -13.7134
  64   1.0000      -0.502894       -13.6844
  65   1.0000      -0.495461       -13.4822
  66   1.0000      -0.490071       -13.3355
  67   1.0000      -0.488100       -13.2819
  68   1.0000      -0.486402       -13.2357
  69   1.0000      -0.482819       -13.1382
  70   1.0000      -0.478721       -13.0267
  71   1.0000      -0.475184       -12.9304
  72   1.0000      -0.471206       -12.8222
  73   1.0000      -0.469983       -12.7889
  74   1.0000      -0.464572       -12.6416
  75   1.0000      -0.461944       -12.5701
  76   1.0000      -0.457139       -12.4394
  77   1.0000      -0.454895       -12.3783
  78   1.0000      -0.451547       -12.2872
  79   1.0000      -0.450009       -12.2454
  80   1.0000      -0.445861       -12.1325
  81   1.0000      -0.440054       -11.9745
  82   1.0000      -0.438550       -11.9335
  83   1.0000      -0.437202       -11.8969
  84   1.0000      -0.432023       -11.7560
  85   1.0000      -0.430529       -11.7153
  86   1.0000      -0.427743       -11.6395
  87   1.0000      -0.425453       -11.5772
  88   1.0000      -0.423140       -11.5142
  89   1.0000      -0.413713       -11.2577
  90   1.0000      -0.395900       -10.7730
  91   1.0000      -0.367052        -9.9880
  92   1.0000      -0.349478        -9.5098
  93   1.0000      -0.342485        -9.3195
  94   1.0000      -0.304123        -8.2756
  95   0.0000      -0.130561        -3.5527
  96   0.0000      -0.049745        -1.3536
  97   0.0000      -0.014104        -0.3838
  98   0.0000       0.015702         0.4273
  99   0.0000       0.033084         0.9003

MULLIKEN ATOMIC CHARGES AND SPIN POPULATIONS
--------------------------------------------
   0 C :    0.276259    0.002313
   1 O :   -0.369718    0.001099
   2 O :   -0.326230    0.008001
   3 C :    0.402423    0.031529
   4 C :    0.377617   -0.033956
   5 C :    0.079965    0.843633
   6 C :    0.378846   -0.007297
   7 C :    0.301454    0.011089
   8 C :    0.330253    0.002358
   9 C :    0.472058    0.001161
  10 F :   -0.181614    0.000633
  11 F :   -0.180144    0.000620
  12 F :   -0.172402    0.007286
  13 F :   -0.173495    0.009454
  14 F :   -0.143739    0.091216
  15 F :   -0.171644    0.001474
  16 F :   -0.169687    0.025775
  17 F :   -0.167931    0.000656
  18 F :   -0.164585    0.002091
  19 F :   -0.162628   -0.000042
  20 F :   -0.159937    0.000198
  21 F :   -0.156134   -0.000052
  22 F :   -0.153227    0.000404
  23 F :   -0.154085    0.000031
  24 H :    0.388329    0.000323
Sum of atomic charges         :   -0.0000000

LOEWDIN ATOMIC CHARGES AND SPIN POPULATIONS
-------------------------------------------
   0 C :   -0.493728    0.004699
   1 O :    0.158985    0.001135
   2 O :    0.132930    0.006630
   3 C :   -0.462238    0.027111
   4 C :   -0.492081    0.058695
   5 C :   -0.162281    0.661337
   6 C :   -0.490443    0.060262
   7 C :   -0.466804    0.014709
   8 C :   -0.479066    0.002972
   9 C :   -0.679574    0.000911
  10 F :    0.212663    0.000607
  11 F :    0.221044    0.001033
  12 F :    0.222908    0.008360
  13 F :    0.219112    0.009428
  14 F :    0.267829    0.107326
  15 F :    0.229927    0.002836
  16 F :    0.208944    0.026990
  17 F :    0.230346    0.001441
  18 F :    0.230681    0.002628
  19 F :    0.230213   -0.000017
  20 F :    0.231026    0.000242
  21 F :    0.230726   -0.000021
  22 F :    0.231943    0.000443
  23 F :    0.232917    0.000065
  24 H :    0.234020    0.000178

  Mayer bond orders larger than 0.100000
B(  0-C ,  1-O ) :   1.2963 B(  0-C ,  2-O ) :   2.0447 B(  0-C ,  3-C ) :   0.8831
B(  1-O , 24-H ) :   0.8184 B(  3-C ,  4-C ) :   0.9288 B(  3-C , 10-F ) :   1.0611
B(  3-C , 11-F ) :   1.0780 B(  4-C ,  5-C ) :   1.0022 B(  4-C , 12-F ) :   1.0882
B(  4-C , 13-F ) :   1.0717 B(  5-C ,  6-C ) :   1.0472 B(  5-C , 14-F ) :   1.1119
B(  6-C ,  7-C ) :   0.9165 B(  6-C , 15-F ) :   1.0654 B(  6-C , 16-F ) :   1.0739
B(  7-C ,  8-C ) :   0.9209 B(  7-C , 17-F ) :   1.0698 B(  7-C , 18-F ) :   1.0881
B(  8-C ,  9-C ) :   0.9483 B(  8-C , 19-F ) :   1.0841 B(  8-C , 20-F ) :   1.0976
B(  9-C , 21-F ) :   1.1283 B(  9-C , 22-F ) :   1.1335 B(  9-C , 23-F ) :   1.1424

Dispersion correction           -0.008490321
FINAL SINGLE POINT ENERGY     -1853.569779840387

DIPOLE MOMENT
-------------

Method             : SCF
Type of density    : Electron Density
Multiplicity       :   2
Irrep              :   0
Energy             : -1853.5612895192869019 Eh
Relativity type    :
Basis              : AO
                                X                 Y                 Z
Electronic contribution:    -13.838601581       0.623938245      -1.851945181
Nuclear contribution   :     14.878107172      -1.197549238       1.394503680
                        -----------------------------------------
Total Dipole Moment    :      1.039505591      -0.573610993      -0.457441501
                        -----------------------------------------
Magnitude (a.u.)       :      1.272342003
Magnitude (Debye)      :      3.234036357

Rotational constants in cm-1:             0.017956             0.004580             0.004425
Rotational constants in MHz :           538.310400           137.292462           132.644782

                             ****ORCA TERMINATED NORMALLY****
TOTAL RUN TIME: 0 days 1 hours 18 minutes 35 seconds 981 msec
