                         Program Version 6.0.1  -  RELEASE   -
|  1> !r2scanh def2-TZVP freq d3 TightSCF SlowConv defgrid2
|  2>
|  3> %pal
|  4> nprocs 20
|  5> end
|  6>
|  7> %scf
|  8> MaxIter 1500
|  9> end
| 10>
| 11> %maxcore 8000
| 12>
| 13> !CPCM
| 14> %cpcm smd true
| 15> SMDsolvent "ACETONITRILE"
| 16> end
| 17>
| 18> * xyz 0 2
| 19> 6        4.157110000     -0.309014000      0.671200000
| 20> 8        4.957632000     -1.119770000      0.004644000
| 21> 8        4.468072000      0.519944000      1.473896000
| 22> 6        2.687073000     -0.540711000      0.266484000
| 23> 6        2.270428000      0.266358000     -0.992766000
| 24> 6        0.850179000      0.047938000     -1.412883000
| 25> 6       -0.376880000      0.753264000     -0.938324000
| 26> 6       -1.462944000     -0.229997000     -0.396735000
| 27> 6       -2.541210000      0.466267000      0.482288000
| 28> 6       -3.843411000     -0.363859000      0.649442000
| 29> 9        2.453397000     -1.842632000      0.010249000
| 30> 9        1.895772000     -0.154714000      1.281017000
| 31> 9        2.490187000      1.570044000     -0.735418000
| 32> 9        3.074836000     -0.118661000     -2.005909000
| 33> 9        0.638333000     -0.990057000     -2.196308000
| 34> 9       -0.059567000      1.618524000      0.041123000
| 35> 9       -0.937535000      1.449348000     -1.955621000
| 36> 9       -0.856782000     -1.168335000      0.349248000
| 37> 9       -2.058987000     -0.831484000     -1.437914000
| 38> 9       -2.878644000      1.647214000     -0.057908000
| 39> 9       -2.029096000      0.675840000      1.702252000
| 40> 9       -3.554852000     -1.616015000      0.987795000
| 41> 9       -4.578677000      0.182735000      1.610163000
| 42> 9       -4.548470000     -0.368266000     -0.473257000
| 43> 1        5.880215000     -0.940672000      0.265976000
| 44> *
| 45>
| 46>                          ****END OF INPUT****

CARTESIAN COORDINATES (ANGSTROEM)
---------------------------------
  C      4.157110   -0.309014    0.671200
  O      4.957632   -1.119770    0.004644
  O      4.468072    0.519944    1.473896
  C      2.687073   -0.540711    0.266484
  C      2.270428    0.266358   -0.992766
  C      0.850179    0.047938   -1.412883
  C     -0.376880    0.753264   -0.938324
  C     -1.462944   -0.229997   -0.396735
  C     -2.541210    0.466267    0.482288
  C     -3.843411   -0.363859    0.649442
  F      2.453397   -1.842632    0.010249
  F      1.895772   -0.154714    1.281017
  F      2.490187    1.570044   -0.735418
  F      3.074836   -0.118661   -2.005909
  F      0.638333   -0.990057   -2.196308
  F     -0.059567    1.618524    0.041123
  F     -0.937535    1.449348   -1.955621
  F     -0.856782   -1.168335    0.349248
  F     -2.058987   -0.831484   -1.437914
  F     -2.878644    1.647214   -0.057908
  F     -2.029096    0.675840    1.702252
  F     -3.554852   -1.616015    0.987795
  F     -4.578677    0.182735    1.610163
  F     -4.548470   -0.368266   -0.473257
  H      5.880215   -0.940672    0.265976

 Total Charge           Charge          ....    0
 Multiplicity           Mult            ....    2
 Number of Electrons    NEL             ....  191
 Basis Dimension        Dim             ....  750

ORBITAL ENERGIES
----------------
                 SPIN UP ORBITALS
  NO   OCC          E(Eh)            E(eV)
   0   1.0000     -24.747218      -673.4060
   1   1.0000     -24.733830      -673.0417
   2   1.0000     -24.733733      -673.0391
   3   1.0000     -24.733547      -673.0340
   4   1.0000     -24.732921      -673.0170
   5   1.0000     -24.732582      -673.0078
   6   1.0000     -24.732010      -672.9922
   7   1.0000     -24.731626      -672.9818
   8   1.0000     -24.730929      -672.9628
   9   1.0000     -24.725190      -672.8066
  10   1.0000     -24.724014      -672.7746
  11   1.0000     -24.722742      -672.7400
  12   1.0000     -24.721396      -672.7034
  13   1.0000     -24.721228      -672.6988
  14   1.0000     -19.195446      -522.3347
  15   1.0000     -19.139843      -520.8216
  16   1.0000     -10.441362      -284.1239
  17   1.0000     -10.388193      -282.6771
  18   1.0000     -10.386957      -282.6435
  19   1.0000     -10.386735      -282.6374
  20   1.0000     -10.383140      -282.5396
  21   1.0000     -10.371204      -282.2148
  22   1.0000     -10.324783      -280.9516
  23   1.0000     -10.313056      -280.6325
  24   1.0000      -1.363075       -37.0911
  25   1.0000      -1.336145       -36.3583
  26   1.0000      -1.324714       -36.0473
  27   1.0000      -1.317307       -35.8458
  28   1.0000      -1.312902       -35.7259
  29   1.0000      -1.306549       -35.5530
  30   1.0000      -1.301048       -35.4033
  31   1.0000      -1.274473       -34.6802
  32   1.0000      -1.268358       -34.5138
  33   1.0000      -1.266195       -34.4549
  34   1.0000      -1.258626       -34.2490
  35   1.0000      -1.258003       -34.2320
  36   1.0000      -1.253624       -34.1128
  37   1.0000      -1.247424       -33.9441
  38   1.0000      -1.151126       -31.3237
  39   1.0000      -1.064146       -28.9569
  40   1.0000      -0.860195       -23.4071
  41   1.0000      -0.836195       -22.7540
  42   1.0000      -0.807740       -21.9797
  43   1.0000      -0.774193       -21.0669
  44   1.0000      -0.733249       -19.9527
  45   1.0000      -0.693185       -18.8625
  46   1.0000      -0.673562       -18.3285
  47   1.0000      -0.658072       -17.9070
  48   1.0000      -0.642520       -17.4839
  49   1.0000      -0.638730       -17.3807
  50   1.0000      -0.630177       -17.1480
  51   1.0000      -0.619958       -16.8699
  52   1.0000      -0.619209       -16.8495
  53   1.0000      -0.614829       -16.7304
  54   1.0000      -0.604628       -16.4528
  55   1.0000      -0.603437       -16.4204
  56   1.0000      -0.601619       -16.3709
  57   1.0000      -0.588833       -16.0230
  58   1.0000      -0.586297       -15.9540
  59   1.0000      -0.573943       -15.6178
  60   1.0000      -0.569530       -15.4977
  61   1.0000      -0.562074       -15.2948
  62   1.0000      -0.527025       -14.3411
  63   1.0000      -0.510299       -13.8860
  64   1.0000      -0.504135       -13.7182
  65   1.0000      -0.499926       -13.6037
  66   1.0000      -0.493098       -13.4179
  67   1.0000      -0.488654       -13.2969
  68   1.0000      -0.487244       -13.2586
  69   1.0000      -0.483680       -13.1616
  70   1.0000      -0.480547       -13.0763
  71   1.0000      -0.475640       -12.9428
  72   1.0000      -0.472331       -12.8528
  73   1.0000      -0.470856       -12.8127
  74   1.0000      -0.465466       -12.6660
  75   1.0000      -0.463059       -12.6005
  76   1.0000      -0.458073       -12.4648
  77   1.0000      -0.456900       -12.4329
  78   1.0000      -0.453732       -12.3467
  79   1.0000      -0.450902       -12.2697
  80   1.0000      -0.447604       -12.1799
  81   1.0000      -0.440223       -11.9791
  82   1.0000      -0.439245       -11.9525
  83   1.0000      -0.437505       -11.9051
  84   1.0000      -0.433020       -11.7831
  85   1.0000      -0.431374       -11.7383
  86   1.0000      -0.427884       -11.6433
  87   1.0000      -0.426083       -11.5943
  88   1.0000      -0.424511       -11.5515
  89   1.0000      -0.415133       -11.2963
  90   1.0000      -0.398027       -10.8309
  91   1.0000      -0.370765       -10.0890
  92   1.0000      -0.350254        -9.5309
  93   1.0000      -0.344931        -9.3861
  94   1.0000      -0.306994        -8.3537
  95   1.0000      -0.267891        -7.2897
  96   0.0000      -0.055092        -1.4991
  97   0.0000      -0.016475        -0.4483
  98   0.0000       0.012786         0.3479
  99   0.0000       0.029727         0.8089
 100   0.0000       0.057169         1.5557

                 SPIN DOWN ORBITALS
  NO   OCC          E(Eh)            E(eV)
   0   1.0000     -24.742071      -673.2660
   1   1.0000     -24.733832      -673.0418
   2   1.0000     -24.733611      -673.0358
   3   1.0000     -24.733493      -673.0326
   4   1.0000     -24.732923      -673.0171
   5   1.0000     -24.732579      -673.0077
   6   1.0000     -24.731987      -672.9916
   7   1.0000     -24.731618      -672.9815
   8   1.0000     -24.730803      -672.9594
   9   1.0000     -24.724700      -672.7933
  10   1.0000     -24.723461      -672.7596
  11   1.0000     -24.721368      -672.7026
  12   1.0000     -24.721217      -672.6985
  13   1.0000     -24.721216      -672.6985
  14   1.0000     -19.195397      -522.3333
  15   1.0000     -19.139587      -520.8146
  16   1.0000     -10.441331      -284.1231
  17   1.0000     -10.389209      -282.7047
  18   1.0000     -10.386718      -282.6370
  19   1.0000     -10.386399      -282.6283
  20   1.0000     -10.384290      -282.5709
  21   1.0000     -10.370370      -282.1921
  22   1.0000     -10.324689      -280.9491
  23   1.0000     -10.296150      -280.1725
  24   1.0000      -1.363040       -37.0902
  25   1.0000      -1.335364       -36.3371
  26   1.0000      -1.323223       -36.0067
  27   1.0000      -1.317050       -35.8388
  28   1.0000      -1.311946       -35.6999
  29   1.0000      -1.304685       -35.5023
  30   1.0000      -1.294380       -35.2219
  31   1.0000      -1.274392       -34.6780
  32   1.0000      -1.268325       -34.5129
  33   1.0000      -1.265895       -34.4468
  34   1.0000      -1.258326       -34.2408
  35   1.0000      -1.257274       -34.2122
  36   1.0000      -1.251959       -34.0675
  37   1.0000      -1.246922       -33.9305
  38   1.0000      -1.150937       -31.3186
  39   1.0000      -1.063802       -28.9475
  40   1.0000      -0.847823       -23.0704
  41   1.0000      -0.830769       -22.6064
  42   1.0000      -0.804733       -21.8979
  43   1.0000      -0.766486       -20.8571
  44   1.0000      -0.731884       -19.9156
  45   1.0000      -0.690090       -18.7783
  46   1.0000      -0.668524       -18.1915
  47   1.0000      -0.656273       -17.8581
  48   1.0000      -0.641411       -17.4537
  49   1.0000      -0.637602       -17.3500
  50   1.0000      -0.629957       -17.1420
  51   1.0000      -0.618201       -16.8221
  52   1.0000      -0.617533       -16.8039
  53   1.0000      -0.610719       -16.6185
  54   1.0000      -0.603425       -16.4200
  55   1.0000      -0.601730       -16.3739
  56   1.0000      -0.600430       -16.3385
  57   1.0000      -0.587280       -15.9807
  58   1.0000      -0.585617       -15.9354
  59   1.0000      -0.572772       -15.5859
  60   1.0000      -0.567587       -15.4448
  61   1.0000      -0.561177       -15.2704
  62   1.0000      -0.510132       -13.8814
  63   1.0000      -0.503960       -13.7134
  64   1.0000      -0.502900       -13.6846
  65   1.0000      -0.495463       -13.4822
  66   1.0000      -0.490073       -13.3356
  67   1.0000      -0.488103       -13.2819
  68   1.0000      -0.486403       -13.2357
  69   1.0000      -0.482830       -13.1385
  70   1.0000      -0.478732       -13.0270
  71   1.0000      -0.475194       -12.9307
  72   1.0000      -0.471217       -12.8225
  73   1.0000      -0.469988       -12.7890
  74   1.0000      -0.464574       -12.6417
  75   1.0000      -0.461955       -12.5704
  76   1.0000      -0.457150       -12.4397
  77   1.0000      -0.454912       -12.3788
  78   1.0000      -0.451550       -12.2873
  79   1.0000      -0.450011       -12.2454
  80   1.0000      -0.445870       -12.1327
  81   1.0000      -0.440055       -11.9745
  82   1.0000      -0.438558       -11.9338
  83   1.0000      -0.437207       -11.8970
  84   1.0000      -0.432025       -11.7560
  85   1.0000      -0.430532       -11.7154
  86   1.0000      -0.427741       -11.6394
  87   1.0000      -0.425464       -11.5775
  88   1.0000      -0.423150       -11.5145
  89   1.0000      -0.413724       -11.2580
  90   1.0000      -0.395900       -10.7730
  91   1.0000      -0.367060        -9.9882
  92   1.0000      -0.349514        -9.5108
  93   1.0000      -0.342483        -9.3194
  94   1.0000      -0.304154        -8.2765
  95   0.0000      -0.130557        -3.5526
  96   0.0000      -0.049769        -1.3543
  97   0.0000      -0.014098        -0.3836
  98   0.0000       0.015708         0.4274
  99   0.0000       0.033085         0.9003

MULLIKEN ATOMIC CHARGES AND SPIN POPULATIONS
--------------------------------------------
   0 C :    0.276246    0.002347
   1 O :   -0.369718    0.001104
   2 O :   -0.326234    0.007963
   3 C :    0.402430    0.031513
   4 C :    0.377625   -0.033942
   5 C :    0.079986    0.843636
   6 C :    0.378841   -0.007281
   7 C :    0.301465    0.011079
   8 C :    0.330239    0.002359
   9 C :    0.472070    0.001161
  10 F :   -0.181616    0.000634
  11 F :   -0.180146    0.000621
  12 F :   -0.172402    0.007285
  13 F :   -0.173499    0.009452
  14 F :   -0.143744    0.091217
  15 F :   -0.171645    0.001470
  16 F :   -0.169693    0.025773
  17 F :   -0.167933    0.000657
  18 F :   -0.164587    0.002092
  19 F :   -0.162628   -0.000042
  20 F :   -0.159935    0.000198
  21 F :   -0.156138   -0.000052
  22 F :   -0.153231    0.000404
  23 F :   -0.154086    0.000031
  24 H :    0.388333    0.000323
Sum of atomic charges         :    0.0000000

LOEWDIN ATOMIC CHARGES AND SPIN POPULATIONS
-------------------------------------------
   0 C :   -0.493735    0.004719
   1 O :    0.158986    0.001139
   2 O :    0.132926    0.006601
   3 C :   -0.462236    0.027106
   4 C :   -0.492071    0.058698
   5 C :   -0.162274    0.661348
   6 C :   -0.490436    0.060266
   7 C :   -0.466799    0.014705
   8 C :   -0.479075    0.002973
   9 C :   -0.679564    0.000911
  10 F :    0.212662    0.000608
  11 F :    0.221043    0.001033
  12 F :    0.222909    0.008359
  13 F :    0.219109    0.009427
  14 F :    0.267825    0.107325
  15 F :    0.229926    0.002833
  16 F :    0.208939    0.026988
  17 F :    0.230345    0.001441
  18 F :    0.230680    0.002628
  19 F :    0.230213   -0.000017
  20 F :    0.231028    0.000242
  21 F :    0.230723   -0.000021
  22 F :    0.231940    0.000443
  23 F :    0.232916    0.000065
  24 H :    0.234022    0.000178

  Mayer bond orders larger than 0.100000
B(  0-C ,  1-O ) :   1.2963 B(  0-C ,  2-O ) :   2.0447 B(  0-C ,  3-C ) :   0.8831
B(  1-O , 24-H ) :   0.8184 B(  3-C ,  4-C ) :   0.9288 B(  3-C , 10-F ) :   1.0611
B(  3-C , 11-F ) :   1.0780 B(  4-C ,  5-C ) :   1.0022 B(  4-C , 12-F ) :   1.0882
B(  4-C , 13-F ) :   1.0717 B(  5-C ,  6-C ) :   1.0472 B(  5-C , 14-F ) :   1.1119
B(  6-C ,  7-C ) :   0.9165 B(  6-C , 15-F ) :   1.0654 B(  6-C , 16-F ) :   1.0739
B(  7-C ,  8-C ) :   0.9209 B(  7-C , 17-F ) :   1.0698 B(  7-C , 18-F ) :   1.0881
B(  8-C ,  9-C ) :   0.9483 B(  8-C , 19-F ) :   1.0841 B(  8-C , 20-F ) :   1.0976
B(  9-C , 21-F ) :   1.1283 B(  9-C , 22-F ) :   1.1335 B(  9-C , 23-F ) :   1.1424

Dispersion correction           -0.008490321
FINAL SINGLE POINT ENERGY     -1853.569779859057

DIPOLE MOMENT
-------------

Method             : SCF
Type of density    : Electron Density
Multiplicity       :   2
Irrep              :   0
Energy             : -1853.5612895378046687 Eh
Relativity type    :
Basis              : AO
                                X                 Y                 Z
Electronic contribution:    -13.838615717       0.623950736      -1.851980528
Nuclear contribution   :     14.878107039      -1.197548819       1.394503802
                        -----------------------------------------
Total Dipole Moment    :      1.039491322      -0.573598083      -0.457476727
                        -----------------------------------------
Magnitude (a.u.)       :      1.272337190
Magnitude (Debye)      :      3.234024126

VIBRATIONAL FREQUENCIES
-----------------------

Scaling factor for frequencies =  1.000000000  (already applied!)

     0:       0.00 cm**-1
     1:       0.00 cm**-1
     2:       0.00 cm**-1
     3:       0.00 cm**-1
     4:       0.00 cm**-1
     5:       0.00 cm**-1
     6:      17.35 cm**-1
     7:      25.77 cm**-1
     8:      37.04 cm**-1
     9:      51.04 cm**-1
    10:      52.68 cm**-1
    11:      57.44 cm**-1
    12:      60.46 cm**-1
    13:      80.15 cm**-1
    14:     103.97 cm**-1
    15:     128.47 cm**-1
    16:     151.30 cm**-1
    17:     182.19 cm**-1
    18:     185.54 cm**-1
    19:     205.47 cm**-1
    20:     214.25 cm**-1
    21:     221.29 cm**-1
    22:     241.09 cm**-1
    23:     243.52 cm**-1
    24:     257.62 cm**-1
    25:     278.57 cm**-1
    26:     285.98 cm**-1
    27:     313.20 cm**-1
    28:     337.09 cm**-1
    29:     346.30 cm**-1
    30:     351.54 cm**-1
    31:     364.16 cm**-1
    32:     376.19 cm**-1
    33:     377.47 cm**-1
    34:     414.84 cm**-1
    35:     424.02 cm**-1
    36:     460.20 cm**-1
    37:     507.74 cm**-1
    38:     528.50 cm**-1
    39:     536.89 cm**-1
    40:     564.12 cm**-1
    41:     575.11 cm**-1
    42:     584.22 cm**-1
    43:     601.62 cm**-1
    44:     612.21 cm**-1
    45:     632.44 cm**-1
    46:     661.96 cm**-1
    47:     667.14 cm**-1
    48:     708.12 cm**-1
    49:     725.17 cm**-1
    50:     772.79 cm**-1
    51:     782.54 cm**-1
    52:     883.78 cm**-1
    53:    1001.07 cm**-1
    54:    1076.21 cm**-1
    55:    1126.43 cm**-1
    56:    1143.02 cm**-1
    57:    1146.14 cm**-1
    58:    1148.07 cm**-1
    59:    1163.83 cm**-1
    60:    1168.69 cm**-1
    61:    1172.51 cm**-1
    62:    1184.89 cm**-1
    63:    1193.56 cm**-1
    64:    1194.47 cm**-1
    65:    1209.62 cm**-1
    66:    1234.45 cm**-1
    67:    1235.68 cm**-1
    68:    1281.98 cm**-1
    69:    1348.01 cm**-1
    70:    1349.91 cm**-1
    71:    1397.60 cm**-1
    72:    1424.02 cm**-1
    73:    1845.94 cm**-1
    74:    3645.36 cm**-1

IR SPECTRUM
-----------

 Mode   freq       eps      Int      T**2         TX        TY        TZ
       cm**-1   L/(mol*cm) km/mol    a.u.
----------------------------------------------------------------------------
  6:     17.35   0.000054    0.27  0.000967  (-0.013221 -0.005774 -0.027551)
  7:     25.77   0.000004    0.02  0.000047  ( 0.000728 -0.000338 -0.006830)
  8:     37.04   0.000391    1.98  0.003296  (-0.022854 -0.048614  0.020256)
  9:     51.04   0.000046    0.23  0.000282  (-0.002423 -0.012543  0.010904)
 10:     52.68   0.000017    0.09  0.000103  ( 0.007315  0.005785  0.004044)
 11:     57.44   0.000213    1.08  0.001158  ( 0.001039 -0.023924  0.024172)
 12:     60.46   0.000206    1.04  0.001062  ( 0.002469 -0.000236  0.032487)
 13:     80.15   0.000031    0.16  0.000121  ( 0.000474  0.010957  0.000659)
 14:    103.97   0.000132    0.67  0.000397  (-0.010308  0.017014  0.001293)
 15:    128.47   0.000561    2.83  0.001362  (-0.021941  0.000454 -0.029666)
 16:    151.30   0.000029    0.15  0.000060  ( 0.006276 -0.002114  0.003970)
 17:    182.19   0.000669    3.38  0.001146  ( 0.015071 -0.000454  0.030308)
 18:    185.54   0.000582    2.94  0.000978  (-0.018471 -0.004295 -0.024869)
 19:    205.47   0.001161    5.87  0.001763  (-0.026608  0.027495 -0.017286)
 20:    214.25   0.000281    1.42  0.000409  ( 0.000645  0.008597 -0.018290)
 21:    221.29   0.000346    1.75  0.000488  ( 0.000312 -0.000386  0.022087)
 22:    241.09   0.000036    0.18  0.000047  ( 0.005144 -0.004482  0.000615)
 23:    243.52   0.000044    0.22  0.000057  (-0.006830  0.002795 -0.001602)
 24:    257.62   0.000372    1.88  0.000451  (-0.018236 -0.005100 -0.009602)
 25:    278.57   0.001171    5.92  0.001312  ( 0.033546 -0.004989 -0.012722)
 26:    285.98   0.000715    3.61  0.000780  (-0.022198  0.007731  0.015084)
 27:    313.20   0.000016    0.08  0.000016  ( 0.000545 -0.001717  0.003615)
 28:    337.09   0.000152    0.77  0.000141  (-0.008312 -0.002112 -0.008208)
 29:    346.30   0.000249    1.26  0.000224  (-0.004155 -0.005118 -0.013439)
 30:    351.54   0.000121    0.61  0.000108  (-0.007855  0.000939  0.006717)
 31:    364.16   0.000068    0.34  0.000059  ( 0.001976  0.001537  0.007227)
 32:    376.19   0.000251    1.27  0.000208  ( 0.006853  0.011006  0.006342)
 33:    377.47   0.000172    0.87  0.000142  ( 0.010434  0.004154  0.004005)
 34:    414.84   0.000267    1.35  0.000201  ( 0.008821 -0.011090  0.000446)
 35:    424.02   0.000496    2.51  0.000365  (-0.003081  0.017371  0.007339)
 36:    460.20   0.001766    8.92  0.001197  (-0.027556 -0.010433  0.018138)
 37:    507.74   0.002262   11.43  0.001390  ( 0.035511  0.006810 -0.009101)
 38:    528.50   0.005089   25.72  0.003005  (-0.030364 -0.019363  0.041330)
 39:    536.89   0.004552   23.00  0.002646  ( 0.032729 -0.038834 -0.008148)
 40:    564.12   0.000573    2.89  0.000317  (-0.011165  0.004648 -0.013059)
 41:    575.11   0.013606   68.76  0.007383  ( 0.073683  0.016143 -0.041148)
 42:    584.22   0.007710   38.96  0.004118  ( 0.040356  0.047124 -0.016399)
 43:    601.62   0.003808   19.25  0.001975  (-0.033073 -0.015813  0.025131)
 44:    612.21   0.015342   77.53  0.007820  ( 0.041065 -0.056214  0.054533)
 45:    632.44   0.016156   81.64  0.007972  (-0.070862  0.036748 -0.039998)
 46:    661.96   0.025130  127.00  0.011847  ( 0.085192 -0.056651  0.037148)
 47:    667.14   0.005700   28.81  0.002666  (-0.044469 -0.013222  0.022675)
 48:    708.12   0.017889   90.41  0.007884  ( 0.072253  0.024674 -0.045326)
 49:    725.17   0.013768   69.58  0.005925  (-0.061622 -0.014439  0.043804)
 50:    772.79   0.002720   13.75  0.001098  (-0.021289 -0.015986  0.019741)
 51:    782.54   0.010912   55.14  0.004351  ( 0.055286  0.008743 -0.034906)
 52:    883.78   0.016070   81.21  0.005674  (-0.005096 -0.013036  0.074017)
 53:   1001.07   0.004294   21.70  0.001339  ( 0.032196 -0.005285  0.016558)
 54:   1076.21   0.037278  188.39  0.010809  ( 0.086406 -0.044499  0.036918)
 55:   1126.43   0.052563  265.63  0.014562  ( 0.015620  0.108808 -0.049784)
 56:   1143.02   0.025226  127.48  0.006887  ( 0.014622 -0.059748 -0.055709)
 57:   1146.14   0.010752   54.34  0.002928  (-0.005637  0.033692  0.041960)
 58:   1148.07   0.074856  378.29  0.020347  (-0.124345 -0.031170  0.062563)
 59:   1163.83   0.101734  514.12  0.027278  ( 0.044650 -0.149967 -0.052864)
 60:   1168.69   0.033953  171.59  0.009066  ( 0.040090 -0.049235  0.070957)
 61:   1172.51   0.024595  124.29  0.006546  ( 0.028347  0.062439  0.042937)
 62:   1184.89   0.096732  488.84  0.025476  ( 0.058945 -0.012767  0.147779)
 63:   1193.56   0.023252  117.51  0.006079  (-0.029400  0.068477  0.022932)
 64:   1194.47   0.114417  578.22  0.029892  (-0.016579  0.158677  0.066625)
 65:   1209.62   0.088348  446.48  0.022793  ( 0.053459 -0.021705  0.139512)
 66:   1234.45   0.010551   53.32  0.002667  (-0.022796  0.016765  0.043203)
 67:   1235.68   0.001272    6.43  0.000321  (-0.012295  0.001741 -0.012928)
 68:   1281.98   0.004019   20.31  0.000978  (-0.028679  0.004258 -0.011730)
 69:   1348.01   0.021448  108.39  0.004965  (-0.054098  0.007245  0.044566)
 70:   1349.91   0.023634  119.44  0.005464  ( 0.068364 -0.020375 -0.019360)
 71:   1397.60   0.022270  112.54  0.004973  ( 0.064174 -0.004418  0.028892)
 72:   1424.02   0.016023   80.98  0.003511  (-0.030654  0.042263  0.028028)
 73:   1845.94   0.094981  480.00  0.016057  (-0.008308 -0.086584 -0.092147)
 74:   3645.36   0.051217  258.83  0.004384  ( 0.065862 -0.005942  0.003372)

--------------------------
THERMOCHEMISTRY AT 298.15K
--------------------------

Temperature         ...   298.15 K
Pressure            ...     1.00 atm
Total Mass          ...   395.07 AMU
Quasi RRHO          ...     True
Cut-Off Frequency   ...     1.00 cm^-1

Throughout the following assumptions are being made:
  (1) The electronic state is orbitally nondegenerate
      but the spin degeneracy is treated
  (2) There are no thermally accessible electronically excited states
  (3) Hindered rotations indicated by low frequency modes are not
      treated as such but are treated as vibrations and this may
      cause some error
  (4) All equations used are the standard statistical mechanics
      equations for an ideal gas
  (5) All vibrations are strictly harmonic

freq.      17.35  E(vib)   ...       0.57
freq.      25.77  E(vib)   ...       0.56
freq.      37.04  E(vib)   ...       0.54
freq.      51.04  E(vib)   ...       0.52
freq.      52.68  E(vib)   ...       0.52
freq.      57.44  E(vib)   ...       0.51
freq.      60.46  E(vib)   ...       0.51
freq.      80.15  E(vib)   ...       0.49
freq.     103.97  E(vib)   ...       0.46
freq.     128.47  E(vib)   ...       0.43
freq.     151.30  E(vib)   ...       0.40
freq.     182.19  E(vib)   ...       0.37
freq.     185.54  E(vib)   ...       0.37
freq.     205.47  E(vib)   ...       0.35
freq.     214.25  E(vib)   ...       0.34
freq.     221.29  E(vib)   ...       0.33
freq.     241.09  E(vib)   ...       0.31
freq.     243.52  E(vib)   ...       0.31
freq.     257.62  E(vib)   ...       0.30
freq.     278.57  E(vib)   ...       0.28
freq.     285.98  E(vib)   ...       0.27
freq.     313.20  E(vib)   ...       0.25
freq.     337.09  E(vib)   ...       0.24
freq.     346.30  E(vib)   ...       0.23
freq.     351.54  E(vib)   ...       0.23
freq.     364.16  E(vib)   ...       0.22
freq.     376.19  E(vib)   ...       0.21
freq.     377.47  E(vib)   ...       0.21
freq.     414.84  E(vib)   ...       0.19
freq.     424.02  E(vib)   ...       0.18
freq.     460.20  E(vib)   ...       0.16
freq.     507.74  E(vib)   ...       0.14
freq.     528.50  E(vib)   ...       0.13
freq.     536.89  E(vib)   ...       0.12
freq.     564.12  E(vib)   ...       0.11
freq.     575.11  E(vib)   ...       0.11
freq.     584.22  E(vib)   ...       0.11
freq.     601.62  E(vib)   ...       0.10
freq.     612.21  E(vib)   ...       0.10
freq.     632.44  E(vib)   ...       0.09
freq.     661.96  E(vib)   ...       0.08
freq.     667.14  E(vib)   ...       0.08
freq.     708.12  E(vib)   ...       0.07
freq.     725.17  E(vib)   ...       0.06
freq.     772.79  E(vib)   ...       0.05
freq.     782.54  E(vib)   ...       0.05
freq.     883.78  E(vib)   ...       0.04
freq.    1001.07  E(vib)   ...       0.02
freq.    1076.21  E(vib)   ...       0.02
freq.    1126.43  E(vib)   ...       0.01
freq.    1143.02  E(vib)   ...       0.01
freq.    1146.14  E(vib)   ...       0.01
freq.    1148.07  E(vib)   ...       0.01
freq.    1163.83  E(vib)   ...       0.01
freq.    1168.69  E(vib)   ...       0.01
freq.    1172.51  E(vib)   ...       0.01
freq.    1184.89  E(vib)   ...       0.01
freq.    1193.56  E(vib)   ...       0.01
freq.    1194.47  E(vib)   ...       0.01
freq.    1209.62  E(vib)   ...       0.01
freq.    1234.45  E(vib)   ...       0.01
freq.    1235.68  E(vib)   ...       0.01
freq.    1281.98  E(vib)   ...       0.01
freq.    1348.01  E(vib)   ...       0.01
freq.    1349.91  E(vib)   ...       0.01
freq.    1397.60  E(vib)   ...       0.00
freq.    1424.02  E(vib)   ...       0.00
freq.    1845.94  E(vib)   ...       0.00
freq.    3645.36  E(vib)   ...       0.00

------------
INNER ENERGY
------------

The inner energy is: U= E(el) + E(ZPE) + E(vib) + E(rot) + E(trans)
    E(el)   - is the total energy from the electronic structure calculation
              = E(kin-el) + E(nuc-el) + E(el-el) + E(nuc-nuc)
    E(ZPE)  - the the zero temperature vibrational energy from the frequency calculation
    E(vib)  - the the finite temperature correction to E(ZPE) due to population
              of excited vibrational states
    E(rot)  - is the rotational thermal energy
    E(trans)- is the translational thermal energy

Summary of contributions to the inner energy U:
Electronic energy                ...  -1853.56977986 Eh
Zero point energy                ...      0.10680508 Eh      67.02 kcal/mol
Thermal vibrational correction   ...      0.01991814 Eh      12.50 kcal/mol
Thermal rotational correction    ...      0.00141627 Eh       0.89 kcal/mol
Thermal translational correction ...      0.00141627 Eh       0.89 kcal/mol
-----------------------------------------------------------------------
Total thermal energy                  -1853.44022410 Eh

Summary of corrections to the electronic energy:
(perhaps to be used in another calculation)
Total thermal correction                  0.02275068 Eh      14.28 kcal/mol
Non-thermal (ZPE) correction              0.10680508 Eh      67.02 kcal/mol
-----------------------------------------------------------------------
Total correction                          0.12955576 Eh      81.30 kcal/mol

--------
ENTHALPY
--------

The enthalpy is H = U + kB*T
                kB is Boltzmann's constant
Total thermal energy              ...  -1853.44022410 Eh
Thermal Enthalpy correction       ...      0.00094421 Eh       0.59 kcal/mol
-----------------------------------------------------------------------
Total Enthalpy                    ...  -1853.43927989 Eh

Note: Only C1 symmetry has been detected, increase convergence thresholds
      if your molecule has a higher symmetry. Symmetry factor of 1.0 is
      used for the rotational entropy correction.

Note: Rotational entropy computed according to Herzberg
Infrared and Raman Spectra, Chapter V,1, Van Nostrand Reinhold, 1945
Point Group:  C1, Symmetry Number:   1
Rotational constants in cm-1:     0.017956     0.004580     0.004425

Vibrational entropy computed according to the QRRHO of S. Grimme
Chem.Eur.J. 2012 18 9955 using a reference frequency of 100.0 cm-1

-------
ENTROPY
-------

The entropy contributions are T*S = T*(S(el)+S(vib)+S(rot)+S(trans))
     S(el)   - electronic entropy
     S(vib)  - vibrational entropy
     S(rot)  - rotational entropy
     S(trans)- translational entropy
The entropies will be listed as multiplied by the temperature to get
units of energy

Electronic entropy                ...      0.00065446 Eh      0.41 kcal/mol
Vibrational entropy               ...      0.03598620 Eh     22.58 kcal/mol

                             ****ORCA TERMINATED NORMALLY****
TOTAL RUN TIME: 0 days 0 hours 24 minutes 57 seconds 166 msec
