                         Program Version 6.0.1  -  RELEASE   -
|  1> !r2scanh def2-TZVP opt d3 TightSCF SlowConv defgrid2
|  2>
|  3> %pal
|  4> nprocs 20
|  5> end
|  6>
|  7> %scf
|  8> MaxIter 1500
|  9> end
| 10>
| 11> %maxcore 8000
| 12>
| 13> !CPCM
| 14> %cpcm smd true
| 15> SMDsolvent "ACETONITRILE"
| 16> end
| 17>
| 18> * xyz 0 2
| 19> 6        4.790427000     -0.033865800     -0.529943200
| 20> 8        5.449345000     -1.206924000     -0.894594600
| 21> 8        4.978223000      1.323071000     -0.737377200
| 22> 6        3.506687600     -0.338741600      0.376153800
| 23> 6        2.222300000      0.400524800     -0.110681600
| 24> 6        0.900506800     -0.386389800      0.175703000
| 25> 6       -0.395261200      0.487294000      0.065549000
| 26> 6       -1.705693600     -0.364773800     -0.068373600
| 27> 6       -3.005136200      0.445344800      0.258164000
| 28> 6       -4.319880200     -0.214526000     -0.270540800
| 29> 9        3.211587400     -1.692050400      0.412735200
| 30> 9        3.741061800      0.055285800      1.689948800
| 31> 9        2.314152400      0.589704000     -1.455769200
| 32> 9        0.794028800     -1.413561400     -0.700839000
| 33> 9        0.958350600     -0.884509000      1.435093400
| 34> 9       -0.498373400      1.260265600      1.173340200
| 35> 9       -0.299075000      1.289512600     -1.020910800
| 36> 9       -1.641790400     -1.418189000      0.779523800
| 37> 9       -1.792381400     -0.831391600     -1.336863600
| 38> 9       -2.918792200      1.679227200     -0.295171200
| 39> 9       -3.119771000      0.573779800      1.598579800
| 40> 9       -4.383115600     -1.504377600      0.089127600
| 41> 9       -5.365669800      0.430528600      0.260394200
| 42> 9       -4.396020400     -0.128550600     -1.602941800
| 43> 1        5.903122371     -2.014774547     -1.145719253
| 44> *
| 45>
| 46>                          ****END OF INPUT****
 Total Charge           Charge          ....    0
 Multiplicity           Mult            ....    2
 Number of Electrons    NEL             ....  191
Dispersion correction           -0.008077352
FINAL SINGLE POINT ENERGY     -1853.445294744104
Dispersion correction             ... done (  0.0 sec)
Dispersion correction           -0.008130130
FINAL SINGLE POINT ENERGY     -1853.501118226930
Dispersion correction             ... done (  0.0 sec)
Dispersion correction           -0.008168470
FINAL SINGLE POINT ENERGY     -1853.514205384915
Dispersion correction             ... done (  0.0 sec)
FINAL SINGLE POINT ENERGY     -1853.520581119358
FINAL SINGLE POINT ENERGY     -1853.521277433576
FINAL SINGLE POINT ENERGY     -1853.523274017498
FINAL SINGLE POINT ENERGY     -1853.524891112329
FINAL SINGLE POINT ENERGY     -1853.527930987884
FINAL SINGLE POINT ENERGY     -1853.532236795151
FINAL SINGLE POINT ENERGY     -1853.534244197807
FINAL SINGLE POINT ENERGY     -1853.567325667820
FINAL SINGLE POINT ENERGY     -1853.567329442480
FINAL SINGLE POINT ENERGY     -1853.567323390452
FINAL SINGLE POINT ENERGY     -1853.567346055632
FINAL SINGLE POINT ENERGY     -1853.567361167556
FINAL SINGLE POINT ENERGY     -1853.567365473076
FINAL SINGLE POINT ENERGY     -1853.567368782938
Dispersion correction             ... done (  0.0 sec)
Dispersion correction           -0.008274976
FINAL SINGLE POINT ENERGY     -1853.567371433426
Dispersion correction             ... done (  0.0 sec)
Dispersion correction           -0.008275133
FINAL SINGLE POINT ENERGY     -1853.567374347452
Dispersion correction             ... done (  0.0 sec)
                    ***********************HURRAY********************

CARTESIAN COORDINATES (ANGSTROEM)
---------------------------------
  C      4.464222    0.330200   -0.178044
  O      5.243750   -0.507438   -0.836072
  O      4.586103    1.514997   -0.087945
  C      3.295060   -0.430361    0.491075
  C      2.184446   -0.682419   -0.470643
  C      0.810597   -1.141072   -0.113085
  C     -0.252260   -0.002818   -0.169361
  C     -1.725824   -0.503069   -0.125094
  C     -2.731217    0.610588    0.287152
  C     -4.205928    0.288519   -0.079589
  F      3.754079   -1.600077    1.017017
  F      2.843441    0.305183    1.531066
  F      2.430203   -0.508432   -1.753822
  F      0.415522   -2.108286   -0.972164
  F      0.834878   -1.641815    1.135106
  F     -0.031517    0.820257    0.868024
  F     -0.072089    0.680433   -1.310673
  F     -1.828305   -1.509246    0.755771
  F     -2.059142   -0.959391   -1.342527
  F     -2.401967    1.760799   -0.320741
  F     -2.666093    0.782406    1.613270
  F     -4.525095   -0.939477    0.314714
  F     -4.999164    1.157125    0.535894
  F     -4.399995    0.389413   -1.387129
  H      5.965125   -0.004106   -1.257610

 Multiplicity           Mult            ....    2
 Number of Electrons    NEL             ....  191
 Basis Dimension        Dim             ....  750

ORBITAL ENERGIES
----------------
                 SPIN UP ORBITALS
  NO   OCC          E(Eh)            E(eV)
   0   1.0000     -24.746091      -673.3754
   1   1.0000     -24.734001      -673.0464
   2   1.0000     -24.733714      -673.0386
   3   1.0000     -24.733614      -673.0358
   4   1.0000     -24.733601      -673.0355
   5   1.0000     -24.733035      -673.0201
   6   1.0000     -24.732720      -673.0115
   7   1.0000     -24.732285      -672.9997
   8   1.0000     -24.732173      -672.9967
   9   1.0000     -24.731968      -672.9911
  10   1.0000     -24.728288      -672.8909
  11   1.0000     -24.726106      -672.8316
  12   1.0000     -24.714200      -672.5076
  13   1.0000     -24.710640      -672.4107
  14   1.0000     -19.195131      -522.3261
  15   1.0000     -19.139610      -520.8153
  16   1.0000     -10.441708      -284.1333
  17   1.0000     -10.389142      -282.7029
  18   1.0000     -10.387032      -282.6455
  19   1.0000     -10.386327      -282.6263
  20   1.0000     -10.385349      -282.5997
  21   1.0000     -10.372814      -282.2586
  22   1.0000     -10.324038      -280.9314
  23   1.0000     -10.308921      -280.5200
  24   1.0000      -1.363381       -37.0995
  25   1.0000      -1.340064       -36.4650
  26   1.0000      -1.323998       -36.0278
  27   1.0000      -1.316516       -35.8242
  28   1.0000      -1.313358       -35.7383
  29   1.0000      -1.304303       -35.4919
  30   1.0000      -1.298953       -35.3463
  31   1.0000      -1.275408       -34.7056
  32   1.0000      -1.269066       -34.5330
  33   1.0000      -1.268310       -34.5125
  34   1.0000      -1.261784       -34.3349
  35   1.0000      -1.258187       -34.2370
  36   1.0000      -1.254593       -34.1392
  37   1.0000      -1.239492       -33.7283
  38   1.0000      -1.150859       -31.3165
  39   1.0000      -1.063819       -28.9480
  40   1.0000      -0.857155       -23.3244
  41   1.0000      -0.840871       -22.8813
  42   1.0000      -0.808869       -22.0104
  43   1.0000      -0.775082       -21.0911
  44   1.0000      -0.730652       -19.8821
  45   1.0000      -0.692715       -18.8497
  46   1.0000      -0.676763       -18.4156
  47   1.0000      -0.653367       -17.7790
  48   1.0000      -0.644130       -17.5277
  49   1.0000      -0.639515       -17.4021
  50   1.0000      -0.631068       -17.1722
  51   1.0000      -0.622024       -16.9261
  52   1.0000      -0.618279       -16.8242
  53   1.0000      -0.617417       -16.8008
  54   1.0000      -0.606377       -16.5003
  55   1.0000      -0.598272       -16.2798
  56   1.0000      -0.596074       -16.2200
  57   1.0000      -0.591852       -16.1051
  58   1.0000      -0.583486       -15.8775
  59   1.0000      -0.578400       -15.7391
  60   1.0000      -0.570030       -15.5113
  61   1.0000      -0.559038       -15.2122
  62   1.0000      -0.524343       -14.2681
  63   1.0000      -0.509708       -13.8699
  64   1.0000      -0.506022       -13.7696
  65   1.0000      -0.501037       -13.6339
  66   1.0000      -0.496201       -13.5023
  67   1.0000      -0.491696       -13.3797
  68   1.0000      -0.488150       -13.2832
  69   1.0000      -0.487867       -13.2755
  70   1.0000      -0.481667       -13.1068
  71   1.0000      -0.476361       -12.9624
  72   1.0000      -0.473875       -12.8948
  73   1.0000      -0.470260       -12.7964
  74   1.0000      -0.465856       -12.6766
  75   1.0000      -0.463403       -12.6098
  76   1.0000      -0.455569       -12.3967
  77   1.0000      -0.451804       -12.2942
  78   1.0000      -0.450381       -12.2555
  79   1.0000      -0.447384       -12.1739
  80   1.0000      -0.446778       -12.1575
  81   1.0000      -0.441527       -12.0146
  82   1.0000      -0.439951       -11.9717
  83   1.0000      -0.436310       -11.8726
  84   1.0000      -0.433699       -11.8015
  85   1.0000      -0.431253       -11.7350
  86   1.0000      -0.428507       -11.6603
  87   1.0000      -0.427604       -11.6357
  88   1.0000      -0.423058       -11.5120
  89   1.0000      -0.416769       -11.3409
  90   1.0000      -0.394826       -10.7438
  91   1.0000      -0.376799       -10.2532
  92   1.0000      -0.350255        -9.5309
  93   1.0000      -0.341772        -9.3001
  94   1.0000      -0.304427        -8.2839
  95   1.0000      -0.267042        -7.2666
  96   0.0000      -0.055709        -1.5159
  97   0.0000      -0.002312        -0.0629
  98   0.0000      -0.000389        -0.0106
  99   0.0000       0.029310         0.7976
 100   0.0000       0.054305         1.4777

                 SPIN DOWN ORBITALS
  NO   OCC          E(Eh)            E(eV)
   0   1.0000     -24.740810      -673.2317
   1   1.0000     -24.734003      -673.0464
   2   1.0000     -24.733718      -673.0387
   3   1.0000     -24.733621      -673.0360
   4   1.0000     -24.733591      -673.0352
   5   1.0000     -24.733027      -673.0199
   6   1.0000     -24.732719      -673.0115
   7   1.0000     -24.732282      -672.9996
   8   1.0000     -24.732159      -672.9962
   9   1.0000     -24.731945      -672.9904
  10   1.0000     -24.728041      -672.8842
  11   1.0000     -24.725099      -672.8041
  12   1.0000     -24.713092      -672.4774
  13   1.0000     -24.708863      -672.3623
  14   1.0000     -19.195112      -522.3256
  15   1.0000     -19.139583      -520.8145
  16   1.0000     -10.441688      -284.1328
  17   1.0000     -10.389008      -282.6993
  18   1.0000     -10.387437      -282.6565
  19   1.0000     -10.386978      -282.6441
  20   1.0000     -10.384637      -282.5803
  21   1.0000     -10.373745      -282.2840
  22   1.0000     -10.324003      -280.9304
  23   1.0000     -10.291955      -280.0583
  24   1.0000      -1.363363       -37.0990
  25   1.0000      -1.339722       -36.4557
  26   1.0000      -1.323185       -36.0057
  27   1.0000      -1.316400       -35.8211
  28   1.0000      -1.311670       -35.6924
  29   1.0000      -1.300228       -35.3810
  30   1.0000      -1.292761       -35.1778
  31   1.0000      -1.275360       -34.7043
  32   1.0000      -1.268924       -34.5292
  33   1.0000      -1.268243       -34.5106
  34   1.0000      -1.261559       -34.3288
  35   1.0000      -1.258119       -34.2352
  36   1.0000      -1.253468       -34.1086
  37   1.0000      -1.236477       -33.6463
  38   1.0000      -1.150770       -31.3140
  39   1.0000      -1.063760       -28.9464
  40   1.0000      -0.848564       -23.0906
  41   1.0000      -0.830897       -22.6098
  42   1.0000      -0.804187       -21.8831
  43   1.0000      -0.773353       -21.0440
  44   1.0000      -0.725158       -19.7326
  45   1.0000      -0.689573       -18.7642
  46   1.0000      -0.674964       -18.3667
  47   1.0000      -0.650136       -17.6911
  48   1.0000      -0.643119       -17.5001
  49   1.0000      -0.638579       -17.3766
  50   1.0000      -0.630754       -17.1637
  51   1.0000      -0.620192       -16.8763
  52   1.0000      -0.616678       -16.7806
  53   1.0000      -0.615862       -16.7585
  54   1.0000      -0.605029       -16.4637
  55   1.0000      -0.595912       -16.2156
  56   1.0000      -0.593962       -16.1625
  57   1.0000      -0.590730       -16.0746
  58   1.0000      -0.579115       -15.7585
  59   1.0000      -0.577473       -15.7138
  60   1.0000      -0.568857       -15.4794
  61   1.0000      -0.557233       -15.1631
  62   1.0000      -0.509497       -13.8641
  63   1.0000      -0.505970       -13.7681
  64   1.0000      -0.501462       -13.6455
  65   1.0000      -0.497683       -13.5426
  66   1.0000      -0.493303       -13.4235
  67   1.0000      -0.488365       -13.2891
  68   1.0000      -0.487731       -13.2718
  69   1.0000      -0.486761       -13.2454
  70   1.0000      -0.480339       -13.0707
  71   1.0000      -0.476121       -12.9559
  72   1.0000      -0.472698       -12.8628
  73   1.0000      -0.469438       -12.7741
  74   1.0000      -0.464365       -12.6360
  75   1.0000      -0.462622       -12.5886
  76   1.0000      -0.454558       -12.3691
  77   1.0000      -0.451172       -12.2770
  78   1.0000      -0.447383       -12.1739
  79   1.0000      -0.444903       -12.1064
  80   1.0000      -0.444452       -12.0942
  81   1.0000      -0.441268       -12.0075
  82   1.0000      -0.439848       -11.9689
  83   1.0000      -0.435899       -11.8614
  84   1.0000      -0.432539       -11.7700
  85   1.0000      -0.430683       -11.7195
  86   1.0000      -0.428118       -11.6497
  87   1.0000      -0.425714       -11.5843
  88   1.0000      -0.420821       -11.4511
  89   1.0000      -0.415506       -11.3065
  90   1.0000      -0.392374       -10.6770
  91   1.0000      -0.373928       -10.1751
  92   1.0000      -0.350084        -9.5263
  93   1.0000      -0.339150        -9.2287
  94   1.0000      -0.303812        -8.2671
  95   0.0000      -0.126274        -3.4361
  96   0.0000      -0.053874        -1.4660
  97   0.0000       0.000548         0.0149
  98   0.0000       0.003058         0.0832
  99   0.0000       0.033642         0.9155

MULLIKEN ATOMIC CHARGES AND SPIN POPULATIONS
--------------------------------------------
   0 C :    0.276940   -0.004739
   1 O :   -0.372071   -0.000332
   2 O :   -0.325639    0.000650
   3 C :    0.459598   -0.008442
   4 C :    0.087957    0.839255
   5 C :    0.381604   -0.025037
   6 C :    0.310921    0.028784
   7 C :    0.296580    0.005250
   8 C :    0.330997    0.002019
   9 C :    0.471418    0.000684
  10 F :   -0.186838    0.029007
  11 F :   -0.181309    0.017276
  12 F :   -0.148169    0.092551
  13 F :   -0.171414    0.017342
  14 F :   -0.168286    0.003820
  15 F :   -0.169092    0.000306
  16 F :   -0.168443    0.000579
  17 F :   -0.163372   -0.000105
  18 F :   -0.164026    0.000220
  19 F :   -0.163163    0.000015
  20 F :   -0.159657    0.000091
  21 F :   -0.155749   -0.000027
  22 F :   -0.153119    0.000264
  23 F :   -0.153915    0.000016
  24 H :    0.388244    0.000550
Sum of atomic charges         :    0.0000000

LOEWDIN ATOMIC CHARGES AND SPIN POPULATIONS
-------------------------------------------
   0 C :   -0.490027    0.000840
   1 O :    0.158728    0.000444
   2 O :    0.132959    0.000805
   3 C :   -0.473146    0.056548
   4 C :   -0.158489    0.661093
   5 C :   -0.489692    0.060982
   6 C :   -0.467098    0.023485
   7 C :   -0.472605    0.005633
   8 C :   -0.479227    0.002006
   9 C :   -0.679519    0.000554
  10 F :    0.184574    0.032583
  11 F :    0.205041    0.021016
  12 F :    0.265001    0.110169
  13 F :    0.215007    0.017371
  14 F :    0.227787    0.004331
  15 F :    0.231830    0.000530
  16 F :    0.231372    0.000805
  17 F :    0.232863   -0.000106
  18 F :    0.231182    0.000273
  19 F :    0.230438   -0.000057
  20 F :    0.232620    0.000092
  21 F :    0.231047   -0.000027
  22 F :    0.231998    0.000284
  23 F :    0.233045    0.000021
  24 H :    0.234311    0.000323

  Mayer bond orders larger than 0.100000
B(  0-C ,  1-O ) :   1.2914 B(  0-C ,  2-O ) :   2.0541 B(  0-C ,  3-C ) :   0.8679
B(  1-O , 24-H ) :   0.8186 B(  3-C ,  4-C ) :   1.0353 B(  3-C , 10-F ) :   1.0627
B(  3-C , 11-F ) :   1.0795 B(  4-C ,  5-C ) :   1.0326 B(  4-C , 12-F ) :   1.1124
B(  5-C ,  6-C ) :   0.9300 B(  5-C , 13-F ) :   1.0639 B(  5-C , 14-F ) :   1.0834
B(  6-C ,  7-C ) :   0.9219 B(  6-C , 15-F ) :   1.0793 B(  6-C , 16-F ) :   1.0782
B(  7-C ,  8-C ) :   0.9311 B(  7-C , 17-F ) :   1.0815 B(  7-C , 18-F ) :   1.0895
B(  8-C ,  9-C ) :   0.9529 B(  8-C , 19-F ) :   1.0827 B(  8-C , 20-F ) :   1.0971
B(  9-C , 21-F ) :   1.1288 B(  9-C , 22-F ) :   1.1338 B(  9-C , 23-F ) :   1.1427

Dispersion correction           -0.008274994
FINAL SINGLE POINT ENERGY     -1853.567375212999

DIPOLE MOMENT
-------------

Method             : SCF
Type of density    : Electron Density
Multiplicity       :   2
Irrep              :   0
Energy             : -1853.5591002190385552 Eh
Relativity type    :
Basis              : AO
                                X                 Y                 Z
Electronic contribution:    -14.811856590      -1.410881622       1.174765778
Nuclear contribution   :     15.811917944       1.119709694      -2.050572566
                        -----------------------------------------
Total Dipole Moment    :      1.000061353      -0.291171927      -0.875806788
                        -----------------------------------------
Magnitude (a.u.)       :      1.360860511
Magnitude (Debye)      :      3.459032526

Rotational constants in cm-1:             0.020919             0.004075             0.004010
Rotational constants in MHz :           627.136917           122.165171           120.222715

                             ****ORCA TERMINATED NORMALLY****
TOTAL RUN TIME: 0 days 1 hours 29 minutes 33 seconds 360 msec
