                         Program Version 6.0.1  -  RELEASE   -
|  1> !r2scanh def2-TZVP freq d3 TightSCF SlowConv defgrid2
|  2>
|  3> %pal
|  4> nprocs 20
|  5> end
|  6>
|  7> %scf
|  8> MaxIter 1500
|  9> end
| 10>
| 11> %maxcore 8000
| 12>
| 13> !CPCM
| 14> %cpcm smd true
| 15> SMDsolvent "ACETONITRILE"
| 16> end
| 17>
| 18> * xyz -1 2
| 19> 6        4.406807000     -0.672494000     -0.384234000
| 20> 8        3.978529000     -1.085801000     -1.481434000
| 21> 8        5.444089000     -0.966900000      0.236821000
| 22> 6        3.522989000      0.332427000      0.290406000
| 23> 6        2.216275000      0.886374000     -0.174567000
| 24> 6        0.997208000     -0.034588000      0.135282000
| 25> 6       -0.388227000      0.672155000      0.049139000
| 26> 6       -1.574882000     -0.326819000     -0.096513000
| 27> 6       -2.949983000      0.303845000      0.271143000
| 28> 6       -4.167293000     -0.486874000     -0.280573000
| 29> 9        3.773270000      0.661263000      1.561452000
| 30> 9        1.970359000      2.066783000      0.467874000
| 31> 9        2.224148000      1.139568000     -1.497142000
| 32> 9        1.004343000     -1.072357000     -0.715309000
| 33> 9        1.140078000     -0.507349000      1.388970000
| 34> 9       -0.578007000      1.396134000      1.165026000
| 35> 9       -0.404293000      1.496500000     -1.009743000
| 36> 9       -1.370350000     -1.378675000      0.711798000
| 37> 9       -1.621974000     -0.759767000     -1.365861000
| 38> 9       -3.023504000      1.552413000     -0.215655000
| 39> 9       -3.063695000      0.348521000      1.604867000
| 40> 9       -4.054402000     -1.778011000      0.012259000
| 41> 9       -5.273603000     -0.014128000      0.281795000
| 42> 9       -4.268062000     -0.346613000     -1.594991000
| 43> *
| 44>
| 45>                          ****END OF INPUT****

CARTESIAN COORDINATES (ANGSTROEM)
---------------------------------
  C      4.406807   -0.672494   -0.384234
  O      3.978529   -1.085801   -1.481434
  O      5.444089   -0.966900    0.236821
  C      3.522989    0.332427    0.290406
  C      2.216275    0.886374   -0.174567
  C      0.997208   -0.034588    0.135282
  C     -0.388227    0.672155    0.049139
  C     -1.574882   -0.326819   -0.096513
  C     -2.949983    0.303845    0.271143
  C     -4.167293   -0.486874   -0.280573
  F      3.773270    0.661263    1.561452
  F      1.970359    2.066783    0.467874
  F      2.224148    1.139568   -1.497142
  F      1.004343   -1.072357   -0.715309
  F      1.140078   -0.507349    1.388970
  F     -0.578007    1.396134    1.165026
  F     -0.404293    1.496500   -1.009743
  F     -1.370350   -1.378675    0.711798
  F     -1.621974   -0.759767   -1.365861
  F     -3.023504    1.552413   -0.215655
  F     -3.063695    0.348521    1.604867
  F     -4.054402   -1.778011    0.012259
  F     -5.273603   -0.014128    0.281795
  F     -4.268062   -0.346613   -1.594991

 Total Charge           Charge          ....   -1
 Multiplicity           Mult            ....    2
 Number of Electrons    NEL             ....  191
 Basis Dimension        Dim             ....  744

ORBITAL ENERGIES
----------------
                 SPIN UP ORBITALS
  NO   OCC          E(Eh)            E(eV)
   0   1.0000     -24.731901      -672.9892
   1   1.0000     -24.730863      -672.9610
   2   1.0000     -24.730588      -672.9535
   3   1.0000     -24.730016      -672.9380
   4   1.0000     -24.729950      -672.9362
   5   1.0000     -24.729778      -672.9315
   6   1.0000     -24.729380      -672.9206
   7   1.0000     -24.726027      -672.8294
   8   1.0000     -24.725608      -672.8180
   9   1.0000     -24.718161      -672.6153
  10   1.0000     -24.718070      -672.6129
  11   1.0000     -24.701836      -672.1711
  12   1.0000     -24.701080      -672.1506
  13   1.0000     -24.696718      -672.0318
  14   1.0000     -19.041387      -518.1425
  15   1.0000     -19.039511      -518.0914
  16   1.0000     -10.439319      -284.0683
  17   1.0000     -10.384651      -282.5807
  18   1.0000     -10.384165      -282.5675
  19   1.0000     -10.380134      -282.4578
  20   1.0000     -10.369039      -282.1559
  21   1.0000     -10.355851      -281.7970
  22   1.0000     -10.253209      -279.0040
  23   1.0000     -10.229809      -278.3673
  24   1.0000      -1.361086       -37.0370
  25   1.0000      -1.335291       -36.3351
  26   1.0000      -1.319006       -35.8920
  27   1.0000      -1.312609       -35.7179
  28   1.0000      -1.305626       -35.5279
  29   1.0000      -1.287789       -35.0425
  30   1.0000      -1.272382       -34.6233
  31   1.0000      -1.266268       -34.4569
  32   1.0000      -1.264624       -34.4122
  33   1.0000      -1.257695       -34.2236
  34   1.0000      -1.254559       -34.1383
  35   1.0000      -1.251215       -34.0473
  36   1.0000      -1.245988       -33.9050
  37   1.0000      -1.227651       -33.4061
  38   1.0000      -1.020508       -27.7694
  39   1.0000      -0.934338       -25.4246
  40   1.0000      -0.843111       -22.9422
  41   1.0000      -0.820590       -22.3294
  42   1.0000      -0.793760       -21.5993
  43   1.0000      -0.752589       -20.4790
  44   1.0000      -0.705980       -19.2107
  45   1.0000      -0.678035       -18.4503
  46   1.0000      -0.656805       -17.8726
  47   1.0000      -0.639802       -17.4099
  48   1.0000      -0.635255       -17.2862
  49   1.0000      -0.628032       -17.0896
  50   1.0000      -0.616286       -16.7700
  51   1.0000      -0.612767       -16.6742
  52   1.0000      -0.610641       -16.6164
  53   1.0000      -0.598205       -16.2780
  54   1.0000      -0.592716       -16.1286
  55   1.0000      -0.584625       -15.9085
  56   1.0000      -0.583494       -15.8777
  57   1.0000      -0.572993       -15.5919
  58   1.0000      -0.564013       -15.3476
  59   1.0000      -0.557706       -15.1760
  60   1.0000      -0.533666       -14.5218
  61   1.0000      -0.502713       -13.6795
  62   1.0000      -0.498708       -13.5705
  63   1.0000      -0.492681       -13.4065
  64   1.0000      -0.488807       -13.3011
  65   1.0000      -0.485893       -13.2218
  66   1.0000      -0.485363       -13.2074
  67   1.0000      -0.477915       -13.0047
  68   1.0000      -0.473346       -12.8804
  69   1.0000      -0.470184       -12.7944
  70   1.0000      -0.465608       -12.6698
  71   1.0000      -0.462118       -12.5749
  72   1.0000      -0.458164       -12.4673
  73   1.0000      -0.449314       -12.2265
  74   1.0000      -0.447757       -12.1841
  75   1.0000      -0.445920       -12.1341
  76   1.0000      -0.438161       -11.9230
  77   1.0000      -0.437294       -11.8994
  78   1.0000      -0.433710       -11.8018
  79   1.0000      -0.432246       -11.7620
  80   1.0000      -0.427123       -11.6226
  81   1.0000      -0.426592       -11.6082
  82   1.0000      -0.424666       -11.5557
  83   1.0000      -0.422749       -11.5036
  84   1.0000      -0.416127       -11.3234
  85   1.0000      -0.409091       -11.1319
  86   1.0000      -0.404110       -10.9964
  87   1.0000      -0.391502       -10.6533
  88   1.0000      -0.382423       -10.4063
  89   1.0000      -0.380112       -10.3434
  90   1.0000      -0.362180        -9.8554
  91   1.0000      -0.326960        -8.8970
  92   1.0000      -0.239842        -6.5264
  93   1.0000      -0.229927        -6.2566
  94   1.0000      -0.220540        -6.0012
  95   1.0000      -0.213030        -5.7968
  96   0.0000      -0.005454        -0.1484
  97   0.0000       0.005163         0.1405
  98   0.0000       0.037000         1.0068
  99   0.0000       0.053586         1.4581
 100   0.0000       0.082876         2.2552

                 SPIN DOWN ORBITALS
  NO   OCC          E(Eh)            E(eV)
   0   1.0000     -24.731902      -672.9893
   1   1.0000     -24.730864      -672.9610
   2   1.0000     -24.730587      -672.9535
   3   1.0000     -24.730010      -672.9378
   4   1.0000     -24.729946      -672.9360
   5   1.0000     -24.729780      -672.9315
   6   1.0000     -24.729379      -672.9206
   7   1.0000     -24.726011      -672.8290
   8   1.0000     -24.725614      -672.8182
   9   1.0000     -24.718126      -672.6144
  10   1.0000     -24.718038      -672.6120
  11   1.0000     -24.701289      -672.1562
  12   1.0000     -24.700539      -672.1358
  13   1.0000     -24.691996      -671.9034
  14   1.0000     -19.038822      -518.0727
  15   1.0000     -19.038062      -518.0520
  16   1.0000     -10.439311      -284.0681
  17   1.0000     -10.384587      -282.5790
  18   1.0000     -10.384141      -282.5668
  19   1.0000     -10.379957      -282.4530
  20   1.0000     -10.368202      -282.1331
  21   1.0000     -10.356800      -281.8229
  22   1.0000     -10.237606      -278.5794
  23   1.0000     -10.231223      -278.4057
  24   1.0000      -1.361079       -37.0368
  25   1.0000      -1.335212       -36.3330
  26   1.0000      -1.318879       -35.8885
  27   1.0000      -1.312568       -35.7168
  28   1.0000      -1.305443       -35.5229
  29   1.0000      -1.286550       -35.0088
  30   1.0000      -1.272377       -34.6231
  31   1.0000      -1.266261       -34.4567
  32   1.0000      -1.264592       -34.4113
  33   1.0000      -1.257587       -34.2207
  34   1.0000      -1.254361       -34.1329
  35   1.0000      -1.247584       -33.9485
  36   1.0000      -1.241794       -33.7909
  37   1.0000      -1.226026       -33.3619
  38   1.0000      -1.017879       -27.6979
  39   1.0000      -0.930334       -25.3157
  40   1.0000      -0.842500       -22.9256
  41   1.0000      -0.817581       -22.2475
  42   1.0000      -0.787094       -21.4179
  43   1.0000      -0.744809       -20.2673
  44   1.0000      -0.699905       -19.0454
  45   1.0000      -0.675073       -18.3697
  46   1.0000      -0.649680       -17.6787
  47   1.0000      -0.639671       -17.4063
  48   1.0000      -0.634474       -17.2649
  49   1.0000      -0.627990       -17.0885
  50   1.0000      -0.615906       -16.7596
  51   1.0000      -0.611672       -16.6445
  52   1.0000      -0.609588       -16.5877
  53   1.0000      -0.597833       -16.2679
  54   1.0000      -0.592009       -16.1094
  55   1.0000      -0.583737       -15.8843
  56   1.0000      -0.581114       -15.8129
  57   1.0000      -0.572046       -15.5662
  58   1.0000      -0.562914       -15.3177
  59   1.0000      -0.555230       -15.1086
  60   1.0000      -0.530668       -14.4402
  61   1.0000      -0.502594       -13.6763
  62   1.0000      -0.498633       -13.5685
  63   1.0000      -0.492638       -13.4053
  64   1.0000      -0.487786       -13.2733
  65   1.0000      -0.485340       -13.2068
  66   1.0000      -0.480810       -13.0835
  67   1.0000      -0.473680       -12.8895
  68   1.0000      -0.470222       -12.7954
  69   1.0000      -0.465439       -12.6652
  70   1.0000      -0.461938       -12.5700
  71   1.0000      -0.461440       -12.5564
  72   1.0000      -0.453703       -12.3459
  73   1.0000      -0.448590       -12.2068
  74   1.0000      -0.444631       -12.0990
  75   1.0000      -0.441747       -12.0206
  76   1.0000      -0.437564       -11.9067
  77   1.0000      -0.437223       -11.8974
  78   1.0000      -0.432728       -11.7751
  79   1.0000      -0.431665       -11.7462
  80   1.0000      -0.426806       -11.6140
  81   1.0000      -0.426270       -11.5994
  82   1.0000      -0.423450       -11.5227
  83   1.0000      -0.421324       -11.4648
  84   1.0000      -0.415407       -11.3038
  85   1.0000      -0.407989       -11.1019
  86   1.0000      -0.402710       -10.9583
  87   1.0000      -0.389386       -10.5957
  88   1.0000      -0.380578       -10.3561
  89   1.0000      -0.372613       -10.1393
  90   1.0000      -0.359812        -9.7910
  91   1.0000      -0.324061        -8.8181
  92   1.0000      -0.227049        -6.1783
  93   1.0000      -0.221946        -6.0395
  94   1.0000      -0.215745        -5.8707
  95   0.0000      -0.092186        -2.5085
  96   0.0000      -0.002644        -0.0719
  97   0.0000       0.006423         0.1748
  98   0.0000       0.038789         1.0555
  99   0.0000       0.057389         1.5616

MULLIKEN ATOMIC CHARGES AND SPIN POPULATIONS
--------------------------------------------
   0 C :    0.266762   -0.076924
   1 O :   -0.533384    0.081746
   2 O :   -0.540965    0.048480
   3 C :    0.043335    0.824207
   4 C :    0.436010   -0.017737
   5 C :    0.274598    0.034563
   6 C :    0.329630    0.006137
   7 C :    0.298693    0.002704
   8 C :    0.330835    0.000578
   9 C :    0.470412    0.000303
  10 F :   -0.191903    0.078428
  11 F :   -0.198592    0.008578
  12 F :   -0.180266    0.007243
  13 F :   -0.169756    0.000825
  14 F :   -0.179998    0.000296
  15 F :   -0.168920    0.000304
  16 F :   -0.167145   -0.000055
  17 F :   -0.165182    0.000083
  18 F :   -0.165164    0.000107
  19 F :   -0.163814    0.000004
  20 F :   -0.160541    0.000037
  21 F :   -0.156324   -0.000012
  22 F :   -0.154050    0.000102
  23 F :   -0.154272    0.000002
Sum of atomic charges         :   -1.0000000

LOEWDIN ATOMIC CHARGES AND SPIN POPULATIONS
-------------------------------------------
   0 C :   -0.718451    0.027250
   1 O :   -0.068857    0.070218
   2 O :   -0.074216    0.041168
   3 C :   -0.185735    0.634783
   4 C :   -0.486572    0.069256
   5 C :   -0.466197    0.027608
   6 C :   -0.470555    0.007444
   7 C :   -0.472254    0.002511
   8 C :   -0.478852    0.000852
   9 C :   -0.679634    0.000246
  10 F :    0.198272    0.097834
  11 F :    0.179288    0.009225
  12 F :    0.208065    0.009103
  13 F :    0.228629    0.000835
  14 F :    0.216921    0.001111
  15 F :    0.225990    0.000405
  16 F :    0.228314   -0.000074
  17 F :    0.230696   -0.000037
  18 F :    0.230453    0.000122
  19 F :    0.229550   -0.000013
  20 F :    0.231098    0.000042
  21 F :    0.230576   -0.000011
  22 F :    0.230807    0.000116
  23 F :    0.232663    0.000006

  Mayer bond orders larger than 0.100000
B(  0-C ,  1-O ) :   1.7951 B(  0-C ,  2-O ) :   1.8130 B(  0-C ,  3-C ) :   0.9607
B(  3-C ,  4-C ) :   0.9424 B(  3-C , 10-F ) :   1.0314 B(  4-C ,  5-C ) :   0.9306
B(  4-C , 11-F ) :   1.0310 B(  4-C , 12-F ) :   1.0869 B(  5-C ,  6-C ) :   0.9232
B(  5-C , 13-F ) :   1.0909 B(  5-C , 14-F ) :   1.0674 B(  6-C ,  7-C ) :   0.9217
B(  6-C , 15-F ) :   1.0749 B(  6-C , 16-F ) :   1.0816 B(  7-C ,  8-C ) :   0.9335
B(  7-C , 17-F ) :   1.0802 B(  7-C , 18-F ) :   1.0881 B(  8-C ,  9-C ) :   0.9533
B(  8-C , 19-F ) :   1.0829 B(  8-C , 20-F ) :   1.0979 B(  9-C , 21-F ) :   1.1290
B(  9-C , 22-F ) :   1.1329 B(  9-C , 23-F ) :   1.1429

Dispersion correction           -0.008151058
FINAL SINGLE POINT ENERGY     -1853.117460074355

DIPOLE MOMENT
-------------

Method             : SCF
Type of density    : Electron Density
Multiplicity       :   2
Irrep              :   0
Energy             : -1853.1093090161332384 Eh
Relativity type    :
Basis              : AO
                                X                 Y                 Z
Electronic contribution:    -18.389625091       3.245747003       1.817865901
Nuclear contribution   :     10.003002463      -1.691609999      -0.987966405
                        -----------------------------------------
Total Dipole Moment    :     -8.386622628       1.554137004       0.829899496
                        -----------------------------------------
Magnitude (a.u.)       :      8.569685764
Magnitude (Debye)      :     21.782410137

VIBRATIONAL FREQUENCIES
-----------------------

Scaling factor for frequencies =  1.000000000  (already applied!)

     0:       0.00 cm**-1
     1:       0.00 cm**-1
     2:       0.00 cm**-1
     3:       0.00 cm**-1
     4:       0.00 cm**-1
     5:       0.00 cm**-1
     6:      24.71 cm**-1
     7:      29.73 cm**-1
     8:      34.54 cm**-1
     9:      47.27 cm**-1
    10:      50.01 cm**-1
    11:      62.76 cm**-1
    12:      69.68 cm**-1
    13:      83.40 cm**-1
    14:     120.32 cm**-1
    15:     137.71 cm**-1
    16:     178.96 cm**-1
    17:     180.87 cm**-1
    18:     195.81 cm**-1
    19:     201.94 cm**-1
    20:     219.51 cm**-1
    21:     238.08 cm**-1
    22:     253.17 cm**-1
    23:     256.22 cm**-1
    24:     286.36 cm**-1
    25:     288.57 cm**-1
    26:     294.21 cm**-1
    27:     315.07 cm**-1
    28:     321.65 cm**-1
    29:     345.73 cm**-1
    30:     355.91 cm**-1
    31:     363.56 cm**-1
    32:     372.69 cm**-1
    33:     379.36 cm**-1
    34:     387.69 cm**-1
    35:     408.78 cm**-1
    36:     464.92 cm**-1
    37:     521.75 cm**-1
    38:     532.21 cm**-1
    39:     560.81 cm**-1
    40:     567.92 cm**-1
    41:     576.02 cm**-1
    42:     601.52 cm**-1
    43:     609.52 cm**-1
    44:     641.59 cm**-1
    45:     670.35 cm**-1
    46:     697.24 cm**-1
    47:     726.70 cm**-1
    48:     740.12 cm**-1
    49:     757.94 cm**-1
    50:     786.10 cm**-1
    51:     882.71 cm**-1
    52:    1022.31 cm**-1
    53:    1061.21 cm**-1
    54:    1125.01 cm**-1
    55:    1137.65 cm**-1
    56:    1147.65 cm**-1
    57:    1159.77 cm**-1
    58:    1170.10 cm**-1
    59:    1176.00 cm**-1
    60:    1185.58 cm**-1
    61:    1189.03 cm**-1
    62:    1208.33 cm**-1
    63:    1210.33 cm**-1
    64:    1230.51 cm**-1
    65:    1242.68 cm**-1
    66:    1280.65 cm**-1
    67:    1300.42 cm**-1
    68:    1313.14 cm**-1
    69:    1360.16 cm**-1
    70:    1383.71 cm**-1
    71:    1685.86 cm**-1

IR SPECTRUM
-----------

 Mode   freq       eps      Int      T**2         TX        TY        TZ
       cm**-1   L/(mol*cm) km/mol    a.u.
----------------------------------------------------------------------------
  6:     24.71   0.001264    6.39  0.015955  (-0.048732 -0.069788  0.093326)
  7:     29.73   0.000235    1.19  0.002470  (-0.034275 -0.034047  0.011644)
  8:     34.54   0.001013    5.12  0.009156  (-0.060580 -0.069186 -0.026451)
  9:     47.27   0.000398    2.01  0.002626  ( 0.046298  0.021370 -0.005098)
 10:     50.01   0.000066    0.33  0.000411  ( 0.005214  0.011186  0.016070)
 11:     62.76   0.000154    0.78  0.000766  (-0.027297 -0.004559 -0.000759)
 12:     69.68   0.000091    0.46  0.000407  (-0.019584  0.004741  0.000820)
 13:     83.40   0.000094    0.48  0.000352  (-0.002249  0.016451 -0.008722)
 14:    120.32   0.000852    4.30  0.002209  (-0.043688  0.013174  0.011241)
 15:    137.71   0.000184    0.93  0.000416  (-0.015138  0.003694 -0.013174)
 16:    178.96   0.000749    3.79  0.001306  (-0.023463  0.011336 -0.025048)
 17:    180.87   0.000826    4.17  0.001425  (-0.005473  0.013278 -0.034905)
 18:    195.81   0.001829    9.24  0.002914  (-0.006524 -0.006777  0.053160)
 19:    201.94   0.000054    0.27  0.000084  (-0.001332  0.008958 -0.001268)
 20:    219.51   0.000420    2.12  0.000597  (-0.005259  0.023084 -0.006042)
 21:    238.08   0.000002    0.01  0.000003  (-0.000779 -0.000154  0.001480)
 22:    253.17   0.000054    0.27  0.000067  ( 0.008078 -0.000495 -0.001159)
 23:    256.22   0.000073    0.37  0.000089  (-0.006981 -0.005731 -0.002786)
 24:    286.36   0.001601    8.09  0.001745  ( 0.040743  0.007859 -0.004801)
 25:    288.57   0.001333    6.74  0.001442  (-0.034659  0.009482  0.012273)
 26:    294.21   0.000725    3.66  0.000769  ( 0.021241  0.003463 -0.017483)
 27:    315.07   0.000200    1.01  0.000198  (-0.007821 -0.007887  0.008618)
 28:    321.65   0.000619    3.13  0.000600  (-0.020822  0.006241  0.011298)
 29:    345.73   0.000097    0.49  0.000088  (-0.005672  0.000064  0.007460)
 30:    355.91   0.000217    1.09  0.000190  ( 0.002812  0.001286  0.013432)
 31:    363.56   0.000049    0.25  0.000042  ( 0.000722 -0.001177 -0.006305)
 32:    372.69   0.000060    0.30  0.000050  (-0.007002  0.000366  0.000951)
 33:    379.36   0.000453    2.29  0.000373  (-0.018641  0.001882  0.004636)
 34:    387.69   0.000443    2.24  0.000357  ( 0.017642 -0.001902 -0.006453)
 35:    408.78   0.000337    1.70  0.000257  ( 0.008886  0.011742 -0.006366)
 36:    464.92   0.000157    0.79  0.000105  (-0.000081  0.005115 -0.008892)
 37:    521.75   0.001824    9.22  0.001091  (-0.032321 -0.004165  0.005406)
 38:    532.21   0.006497   32.83  0.003810  (-0.057024  0.021879  0.008900)
 39:    560.81   0.004289   21.67  0.002387  ( 0.010528  0.047418 -0.005231)
 40:    567.92   0.007022   35.48  0.003858  ( 0.061298 -0.001425  0.009937)
 41:    576.02   0.005906   29.84  0.003199  (-0.047396 -0.022493 -0.021142)
 42:    601.52   0.000218    1.10  0.000113  (-0.001718 -0.004837  0.009320)
 43:    609.52   0.003195   16.15  0.001636  ( 0.040204 -0.002535  0.003618)
 44:    641.59   0.003590   18.14  0.001746  ( 0.037048  0.016638  0.009838)
 45:    670.35   0.039493  199.58  0.018385  (-0.135564  0.002617 -0.000526)
 46:    697.24   0.013217   66.79  0.005916  (-0.075123  0.015237  0.006316)
 47:    726.70   0.001092    5.52  0.000469  (-0.007838  0.017910  0.009320)
 48:    740.12   0.010006   50.57  0.004219  (-0.050643 -0.040216  0.006082)
 49:    757.94   0.006933   35.03  0.002854  (-0.036224  0.022765  0.031998)
 50:    786.10   0.007363   37.21  0.002923  (-0.009732  0.046563  0.025691)
 51:    882.71   0.004318   21.82  0.001527  (-0.020961  0.026009  0.020267)
 52:   1022.31   0.010459   52.86  0.003193  ( 0.053827 -0.012970  0.011281)
 53:   1061.21   0.033615  169.88  0.009885  (-0.024693 -0.094578 -0.018176)
 54:   1125.01   0.007670   38.76  0.002128  ( 0.034189 -0.030960  0.000476)
 55:   1137.65   0.049828  251.81  0.013668  (-0.001424  0.006037 -0.116746)
 56:   1147.65   0.069882  353.15  0.019002  (-0.004225 -0.135991 -0.022145)
 57:   1159.77   0.043848  221.59  0.011798  (-0.003475  0.087921  0.063688)
 58:   1170.10   0.023536  118.94  0.006277  ( 0.018549 -0.039856  0.065911)
 59:   1176.00   0.082521  417.03  0.021898  ( 0.008731 -0.018964  0.146498)
 60:   1185.58   0.091569  462.75  0.024102  ( 0.055522 -0.143622 -0.019814)
 61:   1189.03   0.092066  465.26  0.024163  (-0.014886 -0.021560  0.153221)
 62:   1208.33   0.078477  396.59  0.020267  (-0.022131 -0.056599  0.128741)
 63:   1210.33   0.019150   96.78  0.004938  (-0.038526  0.015479 -0.056689)
 64:   1230.51   0.032678  165.14  0.008287  (-0.008739  0.023356  0.087553)
 65:   1242.68   0.004302   21.74  0.001080  ( 0.009461 -0.005534  0.030986)
 66:   1280.65   0.009303   47.01  0.002267  ( 0.037598 -0.011427 -0.026883)
 67:   1300.42   0.037031  187.14  0.008886  (-0.051620  0.073266  0.029222)
 68:   1313.14   0.021439  108.35  0.005095  (-0.019666  0.060951  0.031515)
 69:   1360.16   0.050277  254.08  0.011535  (-0.104915  0.022976  0.000376)
 70:   1383.71   0.002190   11.07  0.000494  (-0.001846  0.020581  0.008186)
 71:   1685.86   0.145120  733.38  0.026863  ( 0.111773  0.004219  0.119798)

--------------------------
THERMOCHEMISTRY AT 298.15K
--------------------------

Temperature         ...   298.15 K
Pressure            ...     1.00 atm
Total Mass          ...   394.06 AMU
Quasi RRHO          ...     True
Cut-Off Frequency   ...     1.00 cm^-1

Throughout the following assumptions are being made:
  (1) The electronic state is orbitally nondegenerate
      but the spin degeneracy is treated
  (2) There are no thermally accessible electronically excited states
  (3) Hindered rotations indicated by low frequency modes are not
      treated as such but are treated as vibrations and this may
      cause some error
  (4) All equations used are the standard statistical mechanics
      equations for an ideal gas
  (5) All vibrations are strictly harmonic

freq.      24.71  E(vib)   ...       0.56
freq.      29.73  E(vib)   ...       0.55
freq.      34.54  E(vib)   ...       0.54
freq.      47.27  E(vib)   ...       0.53
freq.      50.01  E(vib)   ...       0.52
freq.      62.76  E(vib)   ...       0.51
freq.      69.68  E(vib)   ...       0.50
freq.      83.40  E(vib)   ...       0.48
freq.     120.32  E(vib)   ...       0.44
freq.     137.71  E(vib)   ...       0.42
freq.     178.96  E(vib)   ...       0.37
freq.     180.87  E(vib)   ...       0.37
freq.     195.81  E(vib)   ...       0.36
freq.     201.94  E(vib)   ...       0.35
freq.     219.51  E(vib)   ...       0.33
freq.     238.08  E(vib)   ...       0.32
freq.     253.17  E(vib)   ...       0.30
freq.     256.22  E(vib)   ...       0.30
freq.     286.36  E(vib)   ...       0.27
freq.     288.57  E(vib)   ...       0.27
freq.     294.21  E(vib)   ...       0.27
freq.     315.07  E(vib)   ...       0.25
freq.     321.65  E(vib)   ...       0.25
freq.     345.73  E(vib)   ...       0.23
freq.     355.91  E(vib)   ...       0.22
freq.     363.56  E(vib)   ...       0.22
freq.     372.69  E(vib)   ...       0.21
freq.     379.36  E(vib)   ...       0.21
freq.     387.69  E(vib)   ...       0.20
freq.     408.78  E(vib)   ...       0.19
freq.     464.92  E(vib)   ...       0.16
freq.     521.75  E(vib)   ...       0.13
freq.     532.21  E(vib)   ...       0.13
freq.     560.81  E(vib)   ...       0.11
freq.     567.92  E(vib)   ...       0.11
freq.     576.02  E(vib)   ...       0.11
freq.     601.52  E(vib)   ...       0.10
freq.     609.52  E(vib)   ...       0.10
freq.     641.59  E(vib)   ...       0.09
freq.     670.35  E(vib)   ...       0.08
freq.     697.24  E(vib)   ...       0.07
freq.     726.70  E(vib)   ...       0.06
freq.     740.12  E(vib)   ...       0.06
freq.     757.94  E(vib)   ...       0.06
freq.     786.10  E(vib)   ...       0.05
freq.     882.71  E(vib)   ...       0.04
freq.    1022.31  E(vib)   ...       0.02
freq.    1061.21  E(vib)   ...       0.02
freq.    1125.01  E(vib)   ...       0.01
freq.    1137.65  E(vib)   ...       0.01
freq.    1147.65  E(vib)   ...       0.01
freq.    1159.77  E(vib)   ...       0.01
freq.    1170.10  E(vib)   ...       0.01
freq.    1176.00  E(vib)   ...       0.01
freq.    1185.58  E(vib)   ...       0.01
freq.    1189.03  E(vib)   ...       0.01
freq.    1208.33  E(vib)   ...       0.01
freq.    1210.33  E(vib)   ...       0.01
freq.    1230.51  E(vib)   ...       0.01
freq.    1242.68  E(vib)   ...       0.01
freq.    1280.65  E(vib)   ...       0.01
freq.    1300.42  E(vib)   ...       0.01
freq.    1313.14  E(vib)   ...       0.01
freq.    1360.16  E(vib)   ...       0.01
freq.    1383.71  E(vib)   ...       0.00
freq.    1685.86  E(vib)   ...       0.00

------------
INNER ENERGY
------------

The inner energy is: U= E(el) + E(ZPE) + E(vib) + E(rot) + E(trans)
    E(el)   - is the total energy from the electronic structure calculation
              = E(kin-el) + E(nuc-el) + E(el-el) + E(nuc-nuc)
    E(ZPE)  - the the zero temperature vibrational energy from the frequency calculation
    E(vib)  - the the finite temperature correction to E(ZPE) due to population
              of excited vibrational states
    E(rot)  - is the rotational thermal energy
    E(trans)- is the translational thermal energy

Summary of contributions to the inner energy U:
Electronic energy                ...  -1853.11746007 Eh
Zero point energy                ...      0.09438854 Eh      59.23 kcal/mol
Thermal vibrational correction   ...      0.01945161 Eh      12.21 kcal/mol
Thermal rotational correction    ...      0.00141627 Eh       0.89 kcal/mol
Thermal translational correction ...      0.00141627 Eh       0.89 kcal/mol
-----------------------------------------------------------------------
Total thermal energy                  -1853.00078738 Eh

Summary of corrections to the electronic energy:
(perhaps to be used in another calculation)
Total thermal correction                  0.02228416 Eh      13.98 kcal/mol
Non-thermal (ZPE) correction              0.09438854 Eh      59.23 kcal/mol
-----------------------------------------------------------------------
Total correction                          0.11667269 Eh      73.21 kcal/mol

--------
ENTHALPY
--------

The enthalpy is H = U + kB*T
                kB is Boltzmann's constant
Total thermal energy              ...  -1853.00078738 Eh
Thermal Enthalpy correction       ...      0.00094421 Eh       0.59 kcal/mol
-----------------------------------------------------------------------
Total Enthalpy                    ...  -1852.99984317 Eh

Note: Only C1 symmetry has been detected, increase convergence thresholds
      if your molecule has a higher symmetry. Symmetry factor of 1.0 is
      used for the rotational entropy correction.

Note: Rotational entropy computed according to Herzberg
Infrared and Raman Spectra, Chapter V,1, Van Nostrand Reinhold, 1945
Point Group:  C1, Symmetry Number:   1
Rotational constants in cm-1:     0.020984     0.004247     0.004122

Vibrational entropy computed according to the QRRHO of S. Grimme
Chem.Eur.J. 2012 18 9955 using a reference frequency of 100.0 cm-1

-------
ENTROPY
-------

The entropy contributions are T*S = T*(S(el)+S(vib)+S(rot)+S(trans))
     S(el)   - electronic entropy
     S(vib)  - vibrational entropy
     S(rot)  - rotational entropy
     S(trans)- translational entropy
The entropies will be listed as multiplied by the temperature to get
units of energy

Electronic entropy                ...      0.00065446 Eh      0.41 kcal/mol
Vibrational entropy               ...      0.03492226 Eh     21.91 kcal/mol
Rotational entropy                ...      0.01650581 Eh     10.36 kcal/mol
Translational entropy             ...      0.02081341 Eh     13.06 kcal/mol
-----------------------------------------------------------------------

                             ****ORCA TERMINATED NORMALLY****
TOTAL RUN TIME: 0 days 0 hours 22 minutes 25 seconds 822 msec
