                         Program Version 5.0.3 -  RELEASE  -
|  1> !TPSSh def2-TZVP opt d3 TightSCF SlowConv defgrid2
|  2>
|  3> %pal
|  4> nprocs 20
|  5> end
|  6>
|  7> %scf
|  8> MaxIter 1500
|  9> end
| 10>
| 11> %maxcore 8000
| 12>
| 13> !CPCM
| 14> %cpcm smd true
| 15> SMDsolvent "ACETONITRILE"
| 16> end
| 17>
| 18> * xyz -1 2
| 19> 6        4.790427000     -0.033865800     -0.529943200
| 20> 8        5.449345000     -1.206924000     -0.894594600
| 21> 8        4.978223000      1.323071000     -0.737377200
| 22> 6        3.506687600     -0.338741600      0.376153800
| 23> 6        2.222300000      0.400524800     -0.110681600
| 24> 6        0.900506800     -0.386389800      0.175703000
| 25> 6       -0.395261200      0.487294000      0.065549000
| 26> 6       -1.705693600     -0.364773800     -0.068373600
| 27> 6       -3.005136200      0.445344800      0.258164000
| 28> 6       -4.319880200     -0.214526000     -0.270540800
| 29> 9        3.211587400     -1.692050400      0.412735200
| 30> 9        3.741061800      0.055285800      1.689948800
| 31> 9        2.125696800      1.616867800      0.483236600
| 32> 9        2.314152400      0.589704000     -1.455769200
| 33> 9        0.794028800     -1.413561400     -0.700839000
| 34> 9        0.958350600     -0.884509000      1.435093400
| 35> 9       -0.498373400      1.260265600      1.173340200
| 36> 9       -1.641790400     -1.418189000      0.779523800
| 37> 9       -1.792381400     -0.831391600     -1.336863600
| 38> 9       -2.918792200      1.679227200     -0.295171200
| 39> 9       -3.119771000      0.573779800      1.598579800
| 40> 9       -4.383115600     -1.504377600      0.089127600
| 41> 9       -5.365669800      0.430528600      0.260394200
| 42> 9       -4.396020400     -0.128550600     -1.602941800
| 43> *
| 44>
| 45>                          ****END OF INPUT****
 Total Charge           Charge          ....   -1
 Multiplicity           Mult            ....    2
 Number of Electrons    NEL             ....  191
Dispersion correction           -0.028634536
FINAL SINGLE POINT ENERGY     -1853.893997029566
Dispersion correction            ... done
Dispersion correction           -0.028738034
FINAL SINGLE POINT ENERGY     -1853.937163343929
Dispersion correction            ... done
Dispersion correction           -0.028800515
FINAL SINGLE POINT ENERGY     -1853.945424352582
Dispersion correction            ... done
FINAL SINGLE POINT ENERGY     -1853.949950167733
FINAL SINGLE POINT ENERGY     -1853.951393744767
FINAL SINGLE POINT ENERGY     -1853.952278610245
FINAL SINGLE POINT ENERGY     -1853.953300211611
FINAL SINGLE POINT ENERGY     -1853.953881320720
FINAL SINGLE POINT ENERGY     -1853.954281789758
FINAL SINGLE POINT ENERGY     -1853.954569166779
FINAL SINGLE POINT ENERGY     -1853.954795240844
FINAL SINGLE POINT ENERGY     -1853.954864189682
FINAL SINGLE POINT ENERGY     -1853.954939119792
FINAL SINGLE POINT ENERGY     -1853.954986446706
FINAL SINGLE POINT ENERGY     -1853.954995984465
FINAL SINGLE POINT ENERGY     -1853.955063771783
FINAL SINGLE POINT ENERGY     -1853.955060673475
Dispersion correction            ... done
Dispersion correction           -0.029381628
FINAL SINGLE POINT ENERGY     -1853.955068005084
Dispersion correction            ... done
Dispersion correction           -0.029379888
FINAL SINGLE POINT ENERGY     -1853.955070390706
Dispersion correction            ... done
                    ***********************HURRAY********************

CARTESIAN COORDINATES (ANGSTROEM)
---------------------------------
  C      3.957348    0.542639   -1.250478
  O      4.443986   -0.252664   -2.069155
  O      3.879459    1.784970   -1.239904
  C      3.308008   -0.122027    0.031213
  C      1.772591    0.099396    0.110083
  C      0.959022   -0.863241    1.037281
  C     -0.460066   -0.425144    1.275775
  C     -1.686356   -0.759671    0.487756
  C     -2.548277    0.496505    0.123186
  C     -3.630746    0.262935   -0.975639
  F      3.533259   -1.470751    0.085545
  F      3.865154    0.402091    1.170529
  F      1.516277    1.360249    0.544416
  F      1.251766   -0.026983   -1.141404
  F      0.960035   -2.109215    0.501797
  F      1.587882   -0.910904    2.244708
  F     -0.645865    0.405551    2.293893
  F     -2.495213   -1.602781    1.201827
  F     -1.341696   -1.394004   -0.656929
  F     -1.726978    1.474908   -0.319646
  F     -3.176893    0.931969    1.235869
  F     -4.390684   -0.797269   -0.681383
  F     -4.416485    1.343580   -1.045073
  F     -3.065047    0.073903   -2.169816

 Multiplicity           Mult            ....    2
 Number of Electrons    NEL             ....  191
 Basis Dimension        Dim             ....  744

ORBITAL ENERGIES
----------------
                 SPIN UP ORBITALS
  NO   OCC          E(Eh)            E(eV)
   0   1.0000     -24.668649      -671.2681
   1   1.0000     -24.658886      -671.0024
   2   1.0000     -24.658150      -670.9824
   3   1.0000     -24.657341      -670.9604
   4   1.0000     -24.656724      -670.9436
   5   1.0000     -24.655995      -670.9237
   6   1.0000     -24.654189      -670.8746
   7   1.0000     -24.645323      -670.6333
   8   1.0000     -24.643111      -670.5731
   9   1.0000     -24.642926      -670.5681
  10   1.0000     -24.637675      -670.4252
  11   1.0000     -24.636652      -670.3974
  12   1.0000     -24.612942      -669.7522
  13   1.0000     -24.612331      -669.7356
  14   1.0000     -18.988547      -516.7046
  15   1.0000     -18.986513      -516.6493
  16   1.0000     -10.393470      -282.8207
  17   1.0000     -10.340088      -281.3681
  18   1.0000     -10.338434      -281.3231
  19   1.0000     -10.330249      -281.1004
  20   1.0000     -10.312464      -280.6164
  21   1.0000     -10.278232      -279.6849
  22   1.0000     -10.261250      -279.2228
  23   1.0000     -10.189319      -277.2655
  24   1.0000      -1.319701       -35.9109
  25   1.0000      -1.285645       -34.9842
  26   1.0000      -1.275805       -34.7164
  27   1.0000      -1.268955       -34.5300
  28   1.0000      -1.260480       -34.2994
  29   1.0000      -1.254088       -34.1255
  30   1.0000      -1.233817       -33.5739
  31   1.0000      -1.230138       -33.4738
  32   1.0000      -1.228981       -33.4423
  33   1.0000      -1.222275       -33.2598
  34   1.0000      -1.213096       -33.0100
  35   1.0000      -1.211172       -32.9577
  36   1.0000      -1.200576       -32.6693
  37   1.0000      -1.174040       -31.9472
  38   1.0000      -0.996650       -27.1202
  39   1.0000      -0.915516       -24.9125
  40   1.0000      -0.830333       -22.5945
  41   1.0000      -0.798332       -21.7237
  42   1.0000      -0.768407       -20.9094
  43   1.0000      -0.730271       -19.8717
  44   1.0000      -0.684747       -18.6329
  45   1.0000      -0.658849       -17.9282
  46   1.0000      -0.634935       -17.2775
  47   1.0000      -0.617190       -16.7946
  48   1.0000      -0.610573       -16.6145
  49   1.0000      -0.606520       -16.5043
  50   1.0000      -0.591265       -16.0891
  51   1.0000      -0.588236       -16.0067
  52   1.0000      -0.585539       -15.9333
  53   1.0000      -0.577762       -15.7217
  54   1.0000      -0.576438       -15.6857
  55   1.0000      -0.563926       -15.3452
  56   1.0000      -0.556050       -15.1309
  57   1.0000      -0.546956       -14.8834
  58   1.0000      -0.544751       -14.8234
  59   1.0000      -0.537232       -14.6188
  60   1.0000      -0.519976       -14.1493
  61   1.0000      -0.502656       -13.6780
  62   1.0000      -0.479475       -13.0472
  63   1.0000      -0.475484       -12.9386
  64   1.0000      -0.470053       -12.7908
  65   1.0000      -0.464360       -12.6359
  66   1.0000      -0.459697       -12.5090
  67   1.0000      -0.455236       -12.3876
  68   1.0000      -0.451415       -12.2836
  69   1.0000      -0.449057       -12.2195
  70   1.0000      -0.443940       -12.0802
  71   1.0000      -0.443287       -12.0624
  72   1.0000      -0.435887       -11.8611
  73   1.0000      -0.432857       -11.7786
  74   1.0000      -0.431959       -11.7542
  75   1.0000      -0.429197       -11.6790
  76   1.0000      -0.425297       -11.5729
  77   1.0000      -0.419936       -11.4270
  78   1.0000      -0.416706       -11.3391
  79   1.0000      -0.412701       -11.2302
  80   1.0000      -0.412151       -11.2152
  81   1.0000      -0.409360       -11.1393
  82   1.0000      -0.403938       -10.9917
  83   1.0000      -0.400891       -10.9088
  84   1.0000      -0.398493       -10.8436
  85   1.0000      -0.389479       -10.5983
  86   1.0000      -0.381342       -10.3768
  87   1.0000      -0.375723       -10.2239
  88   1.0000      -0.373093       -10.1524
  89   1.0000      -0.362632        -9.8677
  90   1.0000      -0.349279        -9.5044
  91   1.0000      -0.327175        -8.9029
  92   1.0000      -0.254798        -6.9334
  93   1.0000      -0.232037        -6.3140
  94   1.0000      -0.216763        -5.8984
  95   1.0000      -0.215283        -5.8582
  96   0.0000      -0.014265        -0.3882
  97   0.0000       0.011108         0.3023
  98   0.0000       0.026550         0.7225
  99   0.0000       0.038274         1.0415
 100   0.0000       0.057549         1.5660

                 SPIN DOWN ORBITALS
  NO   OCC          E(Eh)            E(eV)
   0   1.0000     -24.664317      -671.1502
   1   1.0000     -24.658889      -671.0025
   2   1.0000     -24.658147      -670.9823
   3   1.0000     -24.657287      -670.9589
   4   1.0000     -24.656692      -670.9427
   5   1.0000     -24.655899      -670.9211
   6   1.0000     -24.654077      -670.8715
   7   1.0000     -24.643910      -670.5949
   8   1.0000     -24.642681      -670.5614
   9   1.0000     -24.642493      -670.5563
  10   1.0000     -24.637664      -670.4249
  11   1.0000     -24.636642      -670.3971
  12   1.0000     -24.612917      -669.7515
  13   1.0000     -24.612338      -669.7358
  14   1.0000     -18.988381      -516.7001
  15   1.0000     -18.986480      -516.6484
  16   1.0000     -10.393409      -282.8190
  17   1.0000     -10.340941      -281.3913
  18   1.0000     -10.338006      -281.3114
  19   1.0000     -10.331239      -281.1273
  20   1.0000     -10.311766      -280.5974
  21   1.0000     -10.278058      -279.6802
  22   1.0000     -10.245597      -278.7969
  23   1.0000     -10.189284      -277.2645
  24   1.0000      -1.319621       -35.9087
  25   1.0000      -1.284467       -34.9521
  26   1.0000      -1.274375       -34.6775
  27   1.0000      -1.268157       -34.5083
  28   1.0000      -1.256330       -34.1865
  29   1.0000      -1.250756       -34.0348
  30   1.0000      -1.233702       -33.5707
  31   1.0000      -1.230077       -33.4721
  32   1.0000      -1.228905       -33.4402
  33   1.0000      -1.221954       -33.2511
  34   1.0000      -1.211604       -32.9694
  35   1.0000      -1.210035       -32.9267
  36   1.0000      -1.200281       -32.6613
  37   1.0000      -1.174017       -31.9466
  38   1.0000      -0.996471       -27.1154
  39   1.0000      -0.915308       -24.9068
  40   1.0000      -0.818759       -22.2796
  41   1.0000      -0.794856       -21.6291
  42   1.0000      -0.762757       -20.7557
  43   1.0000      -0.728770       -19.8308
  44   1.0000      -0.680406       -18.5148
  45   1.0000      -0.655957       -17.8495
  46   1.0000      -0.631935       -17.1958
  47   1.0000      -0.616108       -16.7652
  48   1.0000      -0.608944       -16.5702
  49   1.0000      -0.606084       -16.4924
  50   1.0000      -0.589271       -16.0349
  51   1.0000      -0.585683       -15.9373
  52   1.0000      -0.581478       -15.8228
  53   1.0000      -0.576897       -15.6982
  54   1.0000      -0.575539       -15.6612
  55   1.0000      -0.562599       -15.3091
  56   1.0000      -0.554430       -15.0868
  57   1.0000      -0.544934       -14.8284
  58   1.0000      -0.543767       -14.7966
  59   1.0000      -0.536201       -14.5908
  60   1.0000      -0.519862       -14.1462
  61   1.0000      -0.483946       -13.1689
  62   1.0000      -0.475473       -12.9383
  63   1.0000      -0.471549       -12.8315
  64   1.0000      -0.468457       -12.7474
  65   1.0000      -0.463305       -12.6072
  66   1.0000      -0.457728       -12.4554
  67   1.0000      -0.454759       -12.3746
  68   1.0000      -0.450696       -12.2641
  69   1.0000      -0.446594       -12.1524
  70   1.0000      -0.443253       -12.0615
  71   1.0000      -0.442399       -12.0383
  72   1.0000      -0.434780       -11.8310
  73   1.0000      -0.432366       -11.7653
  74   1.0000      -0.431395       -11.7389
  75   1.0000      -0.426243       -11.5986
  76   1.0000      -0.424519       -11.5518
  77   1.0000      -0.419772       -11.4226
  78   1.0000      -0.415962       -11.3189
  79   1.0000      -0.412056       -11.2126
  80   1.0000      -0.411177       -11.1887
  81   1.0000      -0.408911       -11.1270
  82   1.0000      -0.403531       -10.9806
  83   1.0000      -0.400565       -10.8999
  84   1.0000      -0.397622       -10.8198
  85   1.0000      -0.388799       -10.5797
  86   1.0000      -0.381219       -10.3735
  87   1.0000      -0.374960       -10.2032
  88   1.0000      -0.372137       -10.1264
  89   1.0000      -0.362455        -9.8629
  90   1.0000      -0.346817        -9.4374
  91   1.0000      -0.325268        -8.8510
  92   1.0000      -0.231934        -6.3112
  93   1.0000      -0.217301        -5.9131
  94   1.0000      -0.215330        -5.8594
  95   0.0000      -0.130308        -3.5459
  96   0.0000      -0.009154        -0.2491
  97   0.0000       0.012993         0.3535
  98   0.0000       0.031250         0.8503
  99   0.0000       0.040085         1.0908

MULLIKEN ATOMIC CHARGES AND SPIN POPULATIONS
--------------------------------------------
   0 C :    0.171923    0.001656
   1 O :   -0.478189    0.005827
   2 O :   -0.492668    0.001205
   3 C :    0.300626    0.006073
   4 C :    0.266333    0.029818
   5 C :    0.345850   -0.032719
   6 C :    0.117275    0.858294
   7 C :    0.299553   -0.005370
   8 C :    0.299516    0.006639
   9 C :    0.408394    0.002444
  10 F :   -0.195842   -0.000111
  11 F :   -0.202807    0.000618
  12 F :   -0.174961   -0.000658
  13 F :   -0.182311   -0.000396
  14 F :   -0.158714    0.006676
  15 F :   -0.164098    0.007475
  16 F :   -0.131510    0.082207
  17 F :   -0.162672    0.026538
  18 F :   -0.157678    0.000801
  19 F :   -0.152890    0.000069
  20 F :   -0.149070    0.001892
  21 F :   -0.136805   -0.000077
  22 F :   -0.135049    0.001037
  23 F :   -0.134208    0.000063
Sum of atomic charges         :   -1.0000000

LOEWDIN ATOMIC CHARGES AND SPIN POPULATIONS
-------------------------------------------
   0 C :   -0.690470    0.002184
   1 O :   -0.047142    0.005227
   2 O :   -0.054213    0.001112
   3 C :   -0.439201    0.006867
   4 C :   -0.451087    0.023505
   5 C :   -0.480926    0.058568
   6 C :   -0.162224    0.659579
   7 C :   -0.478143    0.065597
   8 C :   -0.460450    0.013053
   9 C :   -0.667413    0.002305
  10 F :    0.163056   -0.000099
  11 F :    0.153615    0.000683
  12 F :    0.205104    0.000677
  13 F :    0.201294    0.000635
  14 F :    0.209582    0.008590
  15 F :    0.203595    0.008461
  16 F :    0.259208    0.106045
  17 F :    0.192361    0.029194
  18 F :    0.223219    0.002971
  19 F :    0.222510    0.001152
  20 F :    0.221577    0.002396
  21 F :    0.225001   -0.000022
  22 F :    0.223803    0.001212
  23 F :    0.227346    0.000109

  Mayer bond orders larger than 0.100000
B(  0-C ,  1-O ) :   1.8707 B(  0-C ,  2-O ) :   1.8463 B(  0-C ,  3-C ) :   0.8537
B(  3-C ,  4-C ) :   0.9290 B(  3-C , 10-F ) :   1.0582 B(  3-C , 11-F ) :   1.0424
B(  4-C ,  5-C ) :   0.9290 B(  4-C , 12-F ) :   1.0594 B(  4-C , 13-F ) :   1.0514
B(  5-C ,  6-C ) :   1.0243 B(  5-C , 14-F ) :   1.1025 B(  5-C , 15-F ) :   1.0798
B(  6-C ,  7-C ) :   1.0537 B(  6-C , 16-F ) :   1.1301 B(  7-C ,  8-C ) :   0.9278
B(  7-C , 17-F ) :   1.0755 B(  7-C , 18-F ) :   1.0870 B(  8-C ,  9-C ) :   0.9637
B(  8-C , 19-F ) :   1.0926 B(  8-C , 20-F ) :   1.1011 B(  9-C , 21-F ) :   1.1595
B(  9-C , 22-F ) :   1.1602 B(  9-C , 23-F ) :   1.1700

Dispersion correction           -0.029380768
FINAL SINGLE POINT ENERGY     -1853.955072307405

DIPOLE MOMENT
-------------
                                X             Y             Z
Electronic contribution:    -14.90567      -2.38535       4.92797
Nuclear contribution   :      7.74149       1.22652      -2.44440
                        -----------------------------------------
Total Dipole Moment    :     -7.16418      -1.15883       2.48357
                        -----------------------------------------
Magnitude (a.u.)       :      7.67050
Magnitude (Debye)      :     19.49685

Rotational constants in cm-1:     0.016099     0.004709     0.004396
Rotational constants in MHz :   482.641621   141.184886   131.779707

                             ****ORCA TERMINATED NORMALLY****
TOTAL RUN TIME: 0 days 1 hours 0 minutes 16 seconds 760 msec
