                         Program Version 6.0.1  -  RELEASE   -
|  1> !B3LYP def2-TZVP opt d3 TightSCF SlowConv defgrid2
|  2>
|  3> %pal
|  4> nprocs 20
|  5> end
|  6>
|  7> %scf
|  8> MaxIter 1500
|  9> end
| 10>
| 11> %maxcore 8000
| 12>
| 13> !CPCM
| 14> %cpcm smd true
| 15> SMDsolvent "ACETONITRILE"
| 16> end
| 17>
| 18> * xyz -1 2
| 19> 6        6.992928000     27.098045000      1.664532000
| 20> 6        6.311424000     25.766782000      2.122231000
| 21> 6        7.295670000     24.572066000      2.332730000
| 22> 6        6.678619000     23.352274000      3.110800000
| 23> 6        7.484980000     22.100285000      2.967949000
| 24> 6        7.067558000     20.776409000      2.389511000
| 25> 6        7.131455000     20.693211000      0.838556000
| 26> 6        6.789186000     19.270855000      0.256054000
| 27> 9        7.761305000     26.892501000      0.592615000
| 28> 9        7.738658000     27.614571000      2.641789000
| 29> 9        6.039635000     27.976732000      1.346754000
| 30> 9        5.659920000     26.021745000      3.275301000
| 31> 9        5.411173000     25.430419000      1.178697000
| 32> 9        7.701004000     24.143535000      1.118890000
| 33> 9        8.376044000     25.006398000      3.015511000
| 34> 9        6.609323000     23.711053000      4.425177000
| 35> 9        5.419530000     23.146781000      2.667946000
| 36> 9        8.778682000     22.239658000      3.216238000
| 37> 9        7.898902000     19.825314000      2.896955000
| 38> 9        5.803154000     20.482434000      2.785314000
| 39> 9        6.279357000     21.640893000      0.358313000
| 40> 9        8.392501000     21.080809000      0.482763000
| 41> 8        7.757619000     18.503774000      0.130638000
| 42> 8        5.588649000     19.082332000      0.002510000
| 43> 8        3.247430000     20.548142000      0.339377000
| 44> 1        2.630256000     19.817079000      0.465852000
| 45> 1        4.117097000     20.114159000      0.206708000
| 46> 1        9.453261000     18.652607000      0.741602000
| 47> 8       10.353719000     18.667027000      1.130179000
| 48> 1       10.380375000     19.490245000      1.631195000
| 49> *
| 50>
| 51>                          ****END OF INPUT****
 Total Charge           Charge          ....   -1
 Multiplicity           Mult            ....    2
 Number of Electrons    NEL             ....  211
Dispersion correction           -0.049509857
FINAL SINGLE POINT ENERGY     -2006.177495726585
Dispersion correction             ... done (  0.0 sec)
Dispersion correction           -0.049509144
FINAL SINGLE POINT ENERGY     -2006.177537318419
Dispersion correction             ... done (  0.0 sec)
Dispersion correction           -0.049515200
FINAL SINGLE POINT ENERGY     -2006.177555620879
Dispersion correction             ... done (  0.0 sec)
FINAL SINGLE POINT ENERGY     -2006.177566954151
FINAL SINGLE POINT ENERGY     -2006.177608893673
FINAL SINGLE POINT ENERGY     -2006.177058503316
FINAL SINGLE POINT ENERGY     -2006.177444854950
FINAL SINGLE POINT ENERGY     -2006.174493286621
FINAL SINGLE POINT ENERGY     -2006.177513992293
FINAL SINGLE POINT ENERGY     -2006.177631290777
FINAL SINGLE POINT ENERGY     -2006.178793226504
FINAL SINGLE POINT ENERGY     -2006.178794192694
FINAL SINGLE POINT ENERGY     -2006.178795077050
FINAL SINGLE POINT ENERGY     -2006.178795652100
FINAL SINGLE POINT ENERGY     -2006.178796009493
FINAL SINGLE POINT ENERGY     -2006.178796524868
FINAL SINGLE POINT ENERGY     -2006.178797017107
Dispersion correction             ... done (  0.0 sec)
Dispersion correction           -0.050145952
FINAL SINGLE POINT ENERGY     -2006.178797629460
Dispersion correction             ... done (  0.0 sec)
Dispersion correction           -0.050142992
FINAL SINGLE POINT ENERGY     -2006.178798110041
Dispersion correction             ... done (  0.0 sec)
                    ***********************HURRAY********************

CARTESIAN COORDINATES (ANGSTROEM)
---------------------------------
  C      6.845931   27.072283    1.721327
  C      6.193743   25.692174    2.059706
  C      7.224981   24.543488    2.315502
  C      6.618994   23.295639    3.057453
  C      7.460810   22.067522    2.926121
  C      7.077178   20.725510    2.369194
  C      7.165041   20.605719    0.820822
  C      6.777912   19.180627    0.270155
  F      7.782661   26.933590    0.779819
  F      7.397874   27.614660    2.806708
  F      5.900530   27.897835    1.267684
  F      5.420930   25.866137    3.150570
  F      5.408859   25.343182    1.023029
  F      7.706325   24.141661    1.120439
  F      8.251804   25.022477    3.048167
  F      6.496154   23.636127    4.374089
  F      5.379749   23.064533    2.571757
  F      8.747478   22.239542    3.190439
  F      7.916296   19.798850    2.904823
  F      5.810217   20.419297    2.749902
  F      6.353292   21.570762    0.299829
  F      8.442071   20.941519    0.474374
  O      7.721085   18.379522    0.172522
  O      5.573123   19.027370    0.012138
  O      3.368498   20.664541    0.439614
  H      3.696545   21.476740    0.842866
  H      4.173300   20.123324    0.294144
  H      9.422503   18.506935    0.739952
  O     10.353748   18.506222    1.047447
  H     10.461780   19.360350    1.482094

 Multiplicity           Mult            ....    2
 Number of Electrons    NEL             ....  211
 Basis Dimension        Dim             ....  830

ORBITAL ENERGIES
----------------
                 SPIN UP ORBITALS
  NO   OCC          E(Eh)            E(eV)
   0   1.0000     -24.751079      -673.5111
   1   1.0000     -24.744330      -673.3274
   2   1.0000     -24.743266      -673.2985
   3   1.0000     -24.742667      -673.2822
   4   1.0000     -24.742180      -673.2689
   5   1.0000     -24.741667      -673.2550
   6   1.0000     -24.740955      -673.2356
   7   1.0000     -24.740944      -673.2353
   8   1.0000     -24.737310      -673.1364
   9   1.0000     -24.728386      -672.8936
  10   1.0000     -24.721677      -672.7110
  11   1.0000     -24.721299      -672.7007
  12   1.0000     -24.707691      -672.3305
  13   1.0000     -24.707296      -672.3197
  14   1.0000     -19.088118      -519.4141
  15   1.0000     -19.088003      -519.4110
  16   1.0000     -19.083797      -519.2965
  17   1.0000     -19.083335      -519.2839
  18   1.0000     -10.460365      -284.6410
  19   1.0000     -10.405823      -283.1568
  20   1.0000     -10.404160      -283.1116
  21   1.0000     -10.402467      -283.0655
  22   1.0000     -10.385286      -282.5980
  23   1.0000     -10.353276      -281.7269
  24   1.0000     -10.319621      -280.8112
  25   1.0000     -10.275596      -279.6132
  26   1.0000      -1.352874       -36.8136
  27   1.0000      -1.324084       -36.0302
  28   1.0000      -1.307727       -35.5851
  29   1.0000      -1.302555       -35.4443
  30   1.0000      -1.296506       -35.2797
  31   1.0000      -1.285874       -34.9904
  32   1.0000      -1.271276       -34.5932
  33   1.0000      -1.265435       -34.4342
  34   1.0000      -1.259978       -34.2857
  35   1.0000      -1.256409       -34.1886
  36   1.0000      -1.249074       -33.9890
  37   1.0000      -1.241433       -33.7811
  38   1.0000      -1.233235       -33.5580
  39   1.0000      -1.214347       -33.0441
  40   1.0000      -1.047733       -28.5103
  41   1.0000      -0.975413       -26.5423
  42   1.0000      -0.972160       -26.4538
  43   1.0000      -0.960878       -26.1468
  44   1.0000      -0.852547       -23.1990
  45   1.0000      -0.831335       -22.6218
  46   1.0000      -0.795317       -21.6417
  47   1.0000      -0.758187       -20.6313
  48   1.0000      -0.719078       -19.5671
  49   1.0000      -0.691053       -18.8045
  50   1.0000      -0.664628       -18.0854
  51   1.0000      -0.646743       -17.5988
  52   1.0000      -0.644040       -17.5252
  53   1.0000      -0.636703       -17.3256
  54   1.0000      -0.623152       -16.9568
  55   1.0000      -0.620723       -16.8907
  56   1.0000      -0.617907       -16.8141
  57   1.0000      -0.610769       -16.6199
  58   1.0000      -0.603530       -16.4229
  59   1.0000      -0.599215       -16.3055
  60   1.0000      -0.592837       -16.1319
  61   1.0000      -0.582323       -15.8458
  62   1.0000      -0.580540       -15.7973
  63   1.0000      -0.571853       -15.5609
  64   1.0000      -0.555652       -15.1200
  65   1.0000      -0.530312       -14.4305
  66   1.0000      -0.514709       -14.0059
  67   1.0000      -0.514307       -13.9950
  68   1.0000      -0.509238       -13.8571
  69   1.0000      -0.503520       -13.7015
  70   1.0000      -0.498936       -13.5768
  71   1.0000      -0.498173       -13.5560
  72   1.0000      -0.496934       -13.5223
  73   1.0000      -0.488823       -13.3016
  74   1.0000      -0.483046       -13.1444
  75   1.0000      -0.481501       -13.1023
  76   1.0000      -0.477586       -12.9958
  77   1.0000      -0.474267       -12.9055
  78   1.0000      -0.468304       -12.7432
  79   1.0000      -0.464402       -12.6370
  80   1.0000      -0.463030       -12.5997
  81   1.0000      -0.459669       -12.5082
  82   1.0000      -0.459228       -12.4962
  83   1.0000      -0.452217       -12.3055
  84   1.0000      -0.450059       -12.2467
  85   1.0000      -0.447212       -12.1693
  86   1.0000      -0.442961       -12.0536
  87   1.0000      -0.441611       -12.0168
  88   1.0000      -0.440034       -11.9739
  89   1.0000      -0.437933       -11.9168
  90   1.0000      -0.433857       -11.8058
  91   1.0000      -0.424319       -11.5463
  92   1.0000      -0.421535       -11.4705
  93   1.0000      -0.419912       -11.4264
  94   1.0000      -0.408452       -11.1145
  95   1.0000      -0.405075       -11.0227
  96   1.0000      -0.378974       -10.3124
  97   1.0000      -0.360262        -9.8032
  98   1.0000      -0.359526        -9.7832
  99   1.0000      -0.353983        -9.6324
 100   1.0000      -0.286913        -7.8073
 101   1.0000      -0.284778        -7.7492
 102   1.0000      -0.275071        -7.4851
 103   1.0000      -0.269944        -7.3456
 104   1.0000      -0.259419        -7.0591
 105   1.0000      -0.252591        -6.8733
 106   0.0000      -0.005396        -0.1468
 107   0.0000       0.015417         0.4195
 108   0.0000       0.021538         0.5861
 109   0.0000       0.040681         1.1070
 110   0.0000       0.057853         1.5743

                 SPIN DOWN ORBITALS
  NO   OCC          E(Eh)            E(eV)
   0   1.0000     -24.746691      -673.3917
   1   1.0000     -24.744331      -673.3275
   2   1.0000     -24.743263      -673.2984
   3   1.0000     -24.742649      -673.2817
   4   1.0000     -24.742180      -673.2689
   5   1.0000     -24.741563      -673.2522
   6   1.0000     -24.740937      -673.2351
   7   1.0000     -24.740897      -673.2340
   8   1.0000     -24.737180      -673.1329
   9   1.0000     -24.727074      -672.8579
  10   1.0000     -24.721193      -672.6979
  11   1.0000     -24.720917      -672.6904
  12   1.0000     -24.707666      -672.3298
  13   1.0000     -24.707278      -672.3192
  14   1.0000     -19.088117      -519.4141
  15   1.0000     -19.088003      -519.4110
  16   1.0000     -19.083648      -519.2925
  17   1.0000     -19.083170      -519.2795
  18   1.0000     -10.460336      -284.6402
  19   1.0000     -10.405764      -283.1552
  20   1.0000     -10.403675      -283.0984
  21   1.0000     -10.403244      -283.0867
  22   1.0000     -10.386164      -282.6219
  23   1.0000     -10.352524      -281.7065
  24   1.0000     -10.305256      -280.4203
  25   1.0000     -10.275511      -279.6109
  26   1.0000      -1.352845       -36.8128
  27   1.0000      -1.323509       -36.0145
  28   1.0000      -1.307107       -35.5682
  29   1.0000      -1.300762       -35.3955
  30   1.0000      -1.294499       -35.2251
  31   1.0000      -1.278895       -34.8005
  32   1.0000      -1.270854       -34.5817
  33   1.0000      -1.265381       -34.4328
  34   1.0000      -1.259952       -34.2850
  35   1.0000      -1.256172       -34.1822
  36   1.0000      -1.248934       -33.9852
  37   1.0000      -1.239601       -33.7313
  38   1.0000      -1.232203       -33.5299
  39   1.0000      -1.214203       -33.0402
  40   1.0000      -1.047410       -28.5015
  41   1.0000      -0.975335       -26.5402
  42   1.0000      -0.972156       -26.4537
  43   1.0000      -0.960589       -26.1390
  44   1.0000      -0.844427       -22.9780
  45   1.0000      -0.823216       -22.4008
  46   1.0000      -0.793658       -21.5965
  47   1.0000      -0.752084       -20.4652
  48   1.0000      -0.715541       -19.4709
  49   1.0000      -0.690190       -18.7810
  50   1.0000      -0.660788       -17.9809
  51   1.0000      -0.645173       -17.5560
  52   1.0000      -0.643150       -17.5010
  53   1.0000      -0.636571       -17.3220
  54   1.0000      -0.621849       -16.9214
  55   1.0000      -0.619393       -16.8545
  56   1.0000      -0.612512       -16.6673
  57   1.0000      -0.609296       -16.5798
  58   1.0000      -0.602250       -16.3881
  59   1.0000      -0.597030       -16.2460
  60   1.0000      -0.591917       -16.1069
  61   1.0000      -0.580728       -15.8024
  62   1.0000      -0.578966       -15.7545
  63   1.0000      -0.569789       -15.5047
  64   1.0000      -0.554981       -15.1018
  65   1.0000      -0.514851       -14.0098
  66   1.0000      -0.514421       -13.9981
  67   1.0000      -0.511400       -13.9159
  68   1.0000      -0.505120       -13.7450
  69   1.0000      -0.500105       -13.6085
  70   1.0000      -0.498157       -13.5555
  71   1.0000      -0.496991       -13.5238
  72   1.0000      -0.494636       -13.4597
  73   1.0000      -0.487290       -13.2598
  74   1.0000      -0.481859       -13.1121
  75   1.0000      -0.480196       -13.0668
  76   1.0000      -0.476857       -12.9759
  77   1.0000      -0.473761       -12.8917
  78   1.0000      -0.467555       -12.7228
  79   1.0000      -0.463381       -12.6092
  80   1.0000      -0.462659       -12.5896
  81   1.0000      -0.458499       -12.4764
  82   1.0000      -0.454892       -12.3782
  83   1.0000      -0.451878       -12.2962
  84   1.0000      -0.449640       -12.2353
  85   1.0000      -0.446851       -12.1594
  86   1.0000      -0.442452       -12.0397
  87   1.0000      -0.441159       -12.0046
  88   1.0000      -0.439343       -11.9551
  89   1.0000      -0.437043       -11.8925
  90   1.0000      -0.433026       -11.7832
  91   1.0000      -0.423142       -11.5143
  92   1.0000      -0.421154       -11.4602
  93   1.0000      -0.419562       -11.4169
  94   1.0000      -0.406562       -11.0631
  95   1.0000      -0.404332       -11.0024
  96   1.0000      -0.375869       -10.2279
  97   1.0000      -0.359483        -9.7820
  98   1.0000      -0.358961        -9.7678
  99   1.0000      -0.352580        -9.5942
 100   1.0000      -0.286844        -7.8054
 101   1.0000      -0.284717        -7.7475
 102   1.0000      -0.269597        -7.3361
 103   1.0000      -0.260921        -7.1000
 104   1.0000      -0.258901        -7.0451
 105   0.0000      -0.122961        -3.3459
 106   0.0000      -0.002813        -0.0765
 107   0.0000       0.017517         0.4767
 108   0.0000       0.024895         0.6774
 109   0.0000       0.044087         1.1997

MULLIKEN ATOMIC CHARGES AND SPIN POPULATIONS
--------------------------------------------
   0 C :    0.476808    0.001126
   1 C :    0.323248    0.002737
   2 C :    0.320787    0.011090
   3 C :    0.376304    0.002502
   4 C :    0.087823    0.835597
   5 C :    0.374673   -0.027129
   6 C :    0.308778    0.030125
   7 C :    0.273129    0.002758
   8 F :   -0.155699   -0.000028
   9 F :   -0.153577    0.000027
  10 F :   -0.153092    0.000330
  11 F :   -0.166074   -0.000024
  12 F :   -0.164237    0.000177
  13 F :   -0.174951    0.000912
  14 F :   -0.171417    0.001942
  15 F :   -0.180316    0.023991
  16 F :   -0.177329    0.002392
  17 F :   -0.151325    0.083936
  18 F :   -0.189449    0.007336
  19 F :   -0.187100    0.008097
  20 F :   -0.218585    0.000428
  21 F :   -0.216645    0.000597
  22 O :   -0.491997    0.005217
  23 O :   -0.492616    0.005804
  24 O :   -0.721606    0.000026
  25 H :    0.325919    0.000022
  26 H :    0.346642   -0.000012
  27 H :    0.346923   -0.000032
  28 O :   -0.721890    0.000013
  29 H :    0.326873    0.000043
Sum of atomic charges         :   -1.0000000

LOEWDIN ATOMIC CHARGES AND SPIN POPULATIONS
-------------------------------------------
   0 C :   -0.663180    0.000896
   1 C :   -0.463297    0.003174
   2 C :   -0.450424    0.015326
   3 C :   -0.474544    0.066594
   4 C :   -0.163148    0.652391
   5 C :   -0.480796    0.057735
   6 C :   -0.437051    0.026983
   7 C :   -0.644295    0.004953
   8 F :    0.224436   -0.000005
   9 F :    0.225759    0.000065
  10 F :    0.225124    0.000399
  11 F :    0.222219    0.000023
  12 F :    0.222848    0.000235
  13 F :    0.222133    0.001473
  14 F :    0.220440    0.002593
  15 F :    0.192141    0.026694
  16 F :    0.221902    0.003251
  17 F :    0.256406    0.108606
  18 F :    0.200234    0.007448
  19 F :    0.202341    0.009558
  20 F :    0.173442    0.000883
  21 F :    0.171441    0.000686
  22 O :   -0.024520    0.004737
  23 O :   -0.024906    0.005220
  24 O :   -0.362709    0.000032
  25 H :    0.148596    0.000025
  26 H :    0.136165   -0.000017
  27 H :    0.135845   -0.000020
  28 O :   -0.363209    0.000024
  29 H :    0.150607    0.000036

  Mayer bond orders larger than 0.100000
B(  0-C ,  1-C ) :   0.9646 B(  0-C ,  8-F ) :   1.1426 B(  0-C ,  9-F ) :   1.1542
B(  0-C , 10-F ) :   1.1478 B(  1-C ,  2-C ) :   0.9099 B(  1-C , 11-F ) :   1.0880
B(  1-C , 12-F ) :   1.0982 B(  2-C ,  3-C ) :   0.9099 B(  2-C , 13-F ) :   1.0659
B(  2-C , 14-F ) :   1.0811 B(  3-C ,  4-C ) :   1.0492 B(  3-C , 15-F ) :   1.0683
B(  3-C , 16-F ) :   1.0636 B(  4-C ,  5-C ) :   0.9968 B(  4-C , 17-F ) :   1.1170
B(  5-C ,  6-C ) :   0.8997 B(  5-C , 18-F ) :   1.0636 B(  5-C , 19-F ) :   1.0878
B(  6-C ,  7-C ) :   0.8756 B(  6-C , 20-F ) :   1.0183 B(  6-C , 21-F ) :   1.0154
B(  7-C , 22-O ) :   1.7478 B(  7-C , 23-O ) :   1.7459 B( 22-O , 27-H ) :   0.1142
B( 23-O , 26-H ) :   0.1139 B( 24-O , 25-H ) :   0.9051 B( 24-O , 26-H ) :   0.8317
B( 27-H , 28-O ) :   0.8330 B( 28-O , 29-H ) :   0.9032

Dispersion correction           -0.050142427
FINAL SINGLE POINT ENERGY     -2006.178798215208

DIPOLE MOMENT
-------------

Method             : SCF
Type of density    : Electron Density
Multiplicity       :   2
Irrep              :   0
Energy             : -2006.1286557880439432 Eh
Relativity type    :
Basis              : AO
                                X                 Y                 Z
Electronic contribution:      0.889513757      32.051476466      10.811353773
Nuclear contribution   :     -0.233656429     -24.237868986      -7.740536139
                        -----------------------------------------
Total Dipole Moment    :      0.655857328       7.813607480       3.070817635
                        -----------------------------------------
Magnitude (a.u.)       :      8.420957881
Magnitude (Debye)      :     21.404373899

Rotational constants in cm-1:             0.012082             0.003931             0.003657
Rotational constants in MHz :           362.195297           117.837329           109.630827

                             ****ORCA TERMINATED NORMALLY****
TOTAL RUN TIME: 0 days 1 hours 41 minutes 40 seconds 334 msec
