                         Program Version 6.0.1  -  RELEASE   -
|  1> !B3LYP def2-TZVP freq d3 TightSCF SlowConv defgrid2
|  2>
|  3> %pal
|  4> nprocs 20
|  5> end
|  6>
|  7> %scf
|  8> MaxIter 1500
|  9> end
| 10>
| 11> %maxcore 8000
| 12>
| 13> !CPCM
| 14> %cpcm smd true
| 15> SMDsolvent "ACETONITRILE"
| 16> end
| 17>
| 18> * xyz -2 2
| 19> 6        7.304944000     27.826916000      2.876307000
| 20> 6        6.821774000     26.367216000      3.068721000
| 21> 6        7.234358000     25.214473000      2.100144000
| 22> 6        6.798287000     23.702254000      2.193391000
| 23> 6        7.200063000     22.527268000      1.235361000
| 24> 6        6.756855000     21.042093000      1.445379000
| 25> 6        7.072849000     19.954956000      0.372822000
| 26> 6        6.728697000     18.497338000      0.827699000
| 27> 9        6.897401000     28.312422000      1.694271000
| 28> 9        8.643221000     27.898409000      2.926982000
| 29> 9        6.827953000     28.666891000      3.833407000
| 30> 9        7.239302000     26.011347000      4.326413000
| 31> 9        5.451597000     26.436624000      3.060162000
| 32> 9        6.811598000     25.636736000      0.847268000
| 33> 9        8.619868000     25.200659000      2.133030000
| 34> 9        7.222351000     23.294790000      3.454724000
| 35> 9        5.411138000     23.737410000      2.166159000
| 36> 9        6.750591000     22.891641000     -0.015160000
| 37> 9        8.578294000     22.512745000      1.220156000
| 38> 9        7.316942000     20.622868000      2.620126000
| 39> 9        5.397611000     21.040894000      1.607127000
| 40> 9        6.379781000     20.276465000     -0.761539000
| 41> 9        8.402936000     20.053110000      0.055796000
| 42> 8        7.645908000     17.876501000      1.399817000
| 43> 8        5.562850000     18.122955000      0.595759000
| 44> 8        3.371463000     19.039758000     -0.800893000
| 45> 1        2.715974000     18.432956000     -0.436916000
| 46> 1        4.207002000     18.802902000     -0.341339000
| 47> 1        9.195022000     18.495951000      2.002263000
| 48> 8       10.052275000     18.783899000      2.389268000
| 49> 1       10.085310000     19.730391000      2.207517000
| 50> *
| 51>
| 52>                          ****END OF INPUT****

CARTESIAN COORDINATES (ANGSTROEM)
---------------------------------
  C      7.304944   27.826916    2.876307
  C      6.821774   26.367216    3.068721
  C      7.234358   25.214473    2.100144
  C      6.798287   23.702254    2.193391
  C      7.200063   22.527268    1.235361
  C      6.756855   21.042093    1.445379
  C      7.072849   19.954956    0.372822
  C      6.728697   18.497338    0.827699
  F      6.897401   28.312422    1.694271
  F      8.643221   27.898409    2.926982
  F      6.827953   28.666891    3.833407
  F      7.239302   26.011347    4.326413
  F      5.451597   26.436624    3.060162
  F      6.811598   25.636736    0.847268
  F      8.619868   25.200659    2.133030
  F      7.222351   23.294790    3.454724
  F      5.411138   23.737410    2.166159
  F      6.750591   22.891641   -0.015160
  F      8.578294   22.512745    1.220156
  F      7.316942   20.622868    2.620126
  F      5.397611   21.040894    1.607127
  F      6.379781   20.276465   -0.761539
  F      8.402936   20.053110    0.055796
  O      7.645908   17.876501    1.399817
  O      5.562850   18.122955    0.595759
  O      3.371463   19.039758   -0.800893
  H      2.715974   18.432956   -0.436916
  H      4.207002   18.802902   -0.341339
  H      9.195022   18.495951    2.002263
  O     10.052275   18.783899    2.389268
  H     10.085310   19.730391    2.207517

 Total Charge           Charge          ....   -2
 Multiplicity           Mult            ....    2
 Number of Electrons    NEL             ....  221
 Basis Dimension        Dim             ....  861

ORBITAL ENERGIES
----------------
                 SPIN UP ORBITALS
  NO   OCC          E(Eh)            E(eV)
   0   1.0000     -24.722192      -672.7250
   1   1.0000     -24.722098      -672.7225
   2   1.0000     -24.715429      -672.5410
   3   1.0000     -24.704247      -672.2367
   4   1.0000     -24.704201      -672.2355
   5   1.0000     -24.698235      -672.0731
   6   1.0000     -24.696956      -672.0383
   7   1.0000     -24.691742      -671.8965
   8   1.0000     -24.690875      -671.8729
   9   1.0000     -24.689140      -671.8256
  10   1.0000     -24.688600      -671.8110
  11   1.0000     -24.688445      -671.8067
  12   1.0000     -24.688429      -671.8063
  13   1.0000     -24.683815      -671.6808
  14   1.0000     -24.683194      -671.6638
  15   1.0000     -19.082953      -519.2736
  16   1.0000     -19.081557      -519.2356
  17   1.0000     -19.070699      -518.9401
  18   1.0000     -19.070610      -518.9377
  19   1.0000     -10.429895      -283.8119
  20   1.0000     -10.359086      -281.8851
  21   1.0000     -10.350612      -281.6545
  22   1.0000     -10.344180      -281.4795
  23   1.0000     -10.341587      -281.4089
  24   1.0000     -10.335598      -281.2459
  25   1.0000     -10.334695      -281.2214
  26   1.0000     -10.260982      -279.2155
  27   1.0000      -1.323243       -36.0073
  28   1.0000      -1.273751       -34.6605
  29   1.0000      -1.269548       -34.5462
  30   1.0000      -1.254954       -34.1490
  31   1.0000      -1.249489       -34.0003
  32   1.0000      -1.245158       -33.8825
  33   1.0000      -1.238972       -33.7142
  34   1.0000      -1.234159       -33.5832
  35   1.0000      -1.228648       -33.4332
  36   1.0000      -1.214272       -33.0420
  37   1.0000      -1.211779       -32.9742
  38   1.0000      -1.200737       -32.6737
  39   1.0000      -1.195256       -32.5246
  40   1.0000      -1.194313       -32.4989
  41   1.0000      -1.187142       -32.3038
  42   1.0000      -1.033416       -28.1207
  43   1.0000      -0.968536       -26.3552
  44   1.0000      -0.965865       -26.2825
  45   1.0000      -0.946379       -25.7523
  46   1.0000      -0.794492       -21.6192
  47   1.0000      -0.785123       -21.3643
  48   1.0000      -0.758093       -20.6288
  49   1.0000      -0.728266       -19.8171
  50   1.0000      -0.690977       -18.8024
  51   1.0000      -0.660377       -17.9698
  52   1.0000      -0.634566       -17.2674
  53   1.0000      -0.608686       -16.5632
  54   1.0000      -0.607242       -16.5239
  55   1.0000      -0.605464       -16.4755
  56   1.0000      -0.591590       -16.0980
  57   1.0000      -0.584397       -15.9022
  58   1.0000      -0.579731       -15.7753
  59   1.0000      -0.571663       -15.5557
  60   1.0000      -0.569903       -15.5078
  61   1.0000      -0.558063       -15.1857
  62   1.0000      -0.557649       -15.1744
  63   1.0000      -0.553832       -15.0705
  64   1.0000      -0.544237       -14.8094
  65   1.0000      -0.538875       -14.6635
  66   1.0000      -0.534471       -14.5437
  67   1.0000      -0.523894       -14.2559
  68   1.0000      -0.506450       -13.7812
  69   1.0000      -0.491428       -13.3724
  70   1.0000      -0.481191       -13.0939
  71   1.0000      -0.480931       -13.0868
  72   1.0000      -0.475585       -12.9413
  73   1.0000      -0.461218       -12.5504
  74   1.0000      -0.458899       -12.4873
  75   1.0000      -0.456807       -12.4304
  76   1.0000      -0.455316       -12.3898
  77   1.0000      -0.451741       -12.2925
  78   1.0000      -0.449500       -12.2315
  79   1.0000      -0.447318       -12.1721
  80   1.0000      -0.444190       -12.0870
  81   1.0000      -0.443448       -12.0668
  82   1.0000      -0.440499       -11.9866
  83   1.0000      -0.434868       -11.8334
  84   1.0000      -0.432390       -11.7659
  85   1.0000      -0.425048       -11.5661
  86   1.0000      -0.422391       -11.4938
  87   1.0000      -0.421213       -11.4618
  88   1.0000      -0.420366       -11.4387
  89   1.0000      -0.416924       -11.3451
  90   1.0000      -0.410746       -11.1770
  91   1.0000      -0.409964       -11.1557
  92   1.0000      -0.406243       -11.0544
  93   1.0000      -0.403907       -10.9909
  94   1.0000      -0.402124       -10.9423
  95   1.0000      -0.400477       -10.8975
  96   1.0000      -0.397380       -10.8133
  97   1.0000      -0.390765       -10.6332
  98   1.0000      -0.390588       -10.6284
  99   1.0000      -0.381518       -10.3816
 100   1.0000      -0.372691       -10.1414
 101   1.0000      -0.354155        -9.6371
 102   1.0000      -0.351709        -9.5705
 103   1.0000      -0.346855        -9.4384
 104   1.0000      -0.317578        -8.6417
 105   1.0000      -0.281406        -7.6575
 106   1.0000      -0.279093        -7.5945
 107   1.0000      -0.259020        -7.0483
 108   1.0000      -0.250174        -6.8076
 109   1.0000      -0.246401        -6.7049
 110   1.0000      -0.074341        -2.0229
 111   0.0000       0.016615         0.4521
 112   0.0000       0.042667         1.1610
 113   0.0000       0.058194         1.5835
 114   0.0000       0.062738         1.7072
 115   0.0000       0.068997         1.8775

                 SPIN DOWN ORBITALS
  NO   OCC          E(Eh)            E(eV)
   0   1.0000     -24.722142      -672.7237
   1   1.0000     -24.722048      -672.7211
   2   1.0000     -24.714444      -672.5142
   3   1.0000     -24.703872      -672.2265
   4   1.0000     -24.703820      -672.2251
   5   1.0000     -24.698082      -672.0690
   6   1.0000     -24.696750      -672.0327
   7   1.0000     -24.691316      -671.8849
   8   1.0000     -24.690437      -671.8609
   9   1.0000     -24.688497      -671.8081
  10   1.0000     -24.688361      -671.8045
  11   1.0000     -24.688308      -671.8030
  12   1.0000     -24.687929      -671.7927
  13   1.0000     -24.683138      -671.6623
  14   1.0000     -24.682474      -671.6443
  15   1.0000     -19.082954      -519.2736
  16   1.0000     -19.081557      -519.2356
  17   1.0000     -19.070407      -518.9322
  18   1.0000     -19.070319      -518.9298
  19   1.0000     -10.428640      -283.7777
  20   1.0000     -10.357153      -281.8325
  21   1.0000     -10.349308      -281.6190
  22   1.0000     -10.341771      -281.4139
  23   1.0000     -10.338396      -281.3221
  24   1.0000     -10.334092      -281.2049
  25   1.0000     -10.332185      -281.1531
  26   1.0000     -10.260695      -279.2077
  27   1.0000      -1.322343       -35.9828
  28   1.0000      -1.272618       -34.6297
  29   1.0000      -1.268202       -34.5095
  30   1.0000      -1.253518       -34.1099
  31   1.0000      -1.248996       -33.9869
  32   1.0000      -1.243587       -33.8397
  33   1.0000      -1.238794       -33.7093
  34   1.0000      -1.232336       -33.5336
  35   1.0000      -1.226974       -33.3876
  36   1.0000      -1.213358       -33.0172
  37   1.0000      -1.211174       -32.9577
  38   1.0000      -1.199655       -32.6443
  39   1.0000      -1.194261       -32.4975
  40   1.0000      -1.193805       -32.4851
  41   1.0000      -1.185676       -32.2639
  42   1.0000      -1.032817       -28.1044
  43   1.0000      -0.968491       -26.3540
  44   1.0000      -0.965858       -26.2823
  45   1.0000      -0.945838       -25.7376
  46   1.0000      -0.786687       -21.4068
  47   1.0000      -0.779019       -21.1982
  48   1.0000      -0.750156       -20.4128
  49   1.0000      -0.722268       -19.6539
  50   1.0000      -0.687031       -18.6951
  51   1.0000      -0.657878       -17.9018
  52   1.0000      -0.632270       -17.2049
  53   1.0000      -0.608021       -16.5451
  54   1.0000      -0.604859       -16.4590
  55   1.0000      -0.602175       -16.3860
  56   1.0000      -0.589089       -16.0299
  57   1.0000      -0.580524       -15.7969
  58   1.0000      -0.578531       -15.7426
  59   1.0000      -0.570424       -15.5220
  60   1.0000      -0.566094       -15.4042
  61   1.0000      -0.556560       -15.1448
  62   1.0000      -0.553600       -15.0642
  63   1.0000      -0.551611       -15.0101
  64   1.0000      -0.543258       -14.7828
  65   1.0000      -0.534561       -14.5461
  66   1.0000      -0.532412       -14.4877
  67   1.0000      -0.522656       -14.2222
  68   1.0000      -0.506293       -13.7769
  69   1.0000      -0.491404       -13.3718
  70   1.0000      -0.480549       -13.0764
  71   1.0000      -0.479363       -13.0441
  72   1.0000      -0.475031       -12.9262
  73   1.0000      -0.460589       -12.5333
  74   1.0000      -0.458299       -12.4710
  75   1.0000      -0.456423       -12.4199
  76   1.0000      -0.454797       -12.3756
  77   1.0000      -0.450960       -12.2712
  78   1.0000      -0.448888       -12.2149
  79   1.0000      -0.446682       -12.1548
  80   1.0000      -0.443165       -12.0591
  81   1.0000      -0.442426       -12.0390
  82   1.0000      -0.439915       -11.9707
  83   1.0000      -0.433865       -11.8061
  84   1.0000      -0.431355       -11.7378
  85   1.0000      -0.424187       -11.5427
  86   1.0000      -0.421423       -11.4675
  87   1.0000      -0.420543       -11.4436
  88   1.0000      -0.419624       -11.4186
  89   1.0000      -0.416080       -11.3221
  90   1.0000      -0.410300       -11.1648
  91   1.0000      -0.408422       -11.1137
  92   1.0000      -0.405790       -11.0421
  93   1.0000      -0.402310       -10.9474
  94   1.0000      -0.399752       -10.8778
  95   1.0000      -0.398095       -10.8327
  96   1.0000      -0.394632       -10.7385
  97   1.0000      -0.389173       -10.5899
  98   1.0000      -0.387008       -10.5310
  99   1.0000      -0.375447       -10.2164
 100   1.0000      -0.368063       -10.0155
 101   1.0000      -0.353392        -9.6163
 102   1.0000      -0.350819        -9.5463
 103   1.0000      -0.344193        -9.3660
 104   1.0000      -0.314917        -8.5693
 105   1.0000      -0.281303        -7.6547
 106   1.0000      -0.279073        -7.5940
 107   1.0000      -0.257476        -7.0063
 108   1.0000      -0.249083        -6.7779
 109   1.0000      -0.246004        -6.6941
 110   0.0000      -0.007634        -0.2077
 111   0.0000       0.030291         0.8243
 112   0.0000       0.046491         1.2651
 113   0.0000       0.061124         1.6633
 114   0.0000       0.063356         1.7240

MULLIKEN ATOMIC CHARGES AND SPIN POPULATIONS
--------------------------------------------
   0 C :    0.448599    0.061601
   1 C :    0.291551    0.118214
   2 C :    0.242383    0.222133
   3 C :    0.247105    0.250546
   4 C :    0.278797    0.164949
   5 C :    0.285648    0.078753
   6 C :    0.331937    0.032942
   7 C :    0.242936    0.014460
   8 F :   -0.176274   -0.000113
   9 F :   -0.176216   -0.000116
  10 F :   -0.186200    0.010503
  11 F :   -0.209871    0.002491
  12 F :   -0.209591    0.002490
  13 F :   -0.234640    0.004137
  14 F :   -0.232978    0.003974
  15 F :   -0.240221    0.004136
  16 F :   -0.236809    0.003813
  17 F :   -0.225306    0.001637
  18 F :   -0.226072    0.001868
  19 F :   -0.215766    0.000817
  20 F :   -0.215901    0.001381
  21 F :   -0.222738    0.000511
  22 F :   -0.225657    0.000826
  23 O :   -0.508388    0.008979
  24 O :   -0.514395    0.008948
  25 O :   -0.731658   -0.000015
  26 H :    0.324700    0.000000
  27 H :    0.350844   -0.000037
  28 H :    0.347545   -0.000148
  29 O :   -0.726896   -0.000040
  30 H :    0.323532    0.000358
Sum of atomic charges         :   -2.0000000

LOEWDIN ATOMIC CHARGES AND SPIN POPULATIONS
-------------------------------------------
   0 C :   -0.654694    0.052485
   1 C :   -0.476656    0.123826
   2 C :   -0.471187    0.197840
   3 C :   -0.471533    0.212746
   4 C :   -0.468223    0.148953
   5 C :   -0.460175    0.076229
   6 C :   -0.446928    0.037834
   7 C :   -0.649143    0.016846
   8 F :    0.199009    0.001394
   9 F :    0.199265    0.001378
  10 F :    0.165822    0.019328
  11 F :    0.162788    0.007117
  12 F :    0.163169    0.007025
  13 F :    0.131022    0.012623
  14 F :    0.134005    0.012242
  15 F :    0.122607    0.013506
  16 F :    0.127884    0.013023
  17 F :    0.148342    0.008091
  18 F :    0.147214    0.008325
  19 F :    0.173204    0.003191
  20 F :    0.168568    0.003779
  21 F :    0.156884    0.001781
  22 F :    0.152264    0.002170
  23 O :   -0.042783    0.009070
  24 O :   -0.045326    0.009097
  25 O :   -0.373248   -0.000023
  26 H :    0.154380   -0.000002
  27 H :    0.138796   -0.000040
  28 H :    0.135130   -0.000041
  29 O :   -0.368578   -0.000010
  30 H :    0.148123    0.000214

  Mayer bond orders larger than 0.100000
B(  0-C ,  1-C ) :   0.9596 B(  0-C ,  8-F ) :   1.1376 B(  0-C ,  9-F ) :   1.1378
B(  0-C , 10-F ) :   1.0966 B(  1-C ,  2-C ) :   0.9117 B(  1-C , 11-F ) :   1.0365
B(  1-C , 12-F ) :   1.0360 B(  2-C ,  3-C ) :   0.9096 B(  2-C , 13-F ) :   0.9997
B(  2-C , 14-F ) :   1.0011 B(  3-C ,  4-C ) :   0.9083 B(  3-C , 15-F ) :   0.9862
B(  3-C , 16-F ) :   0.9912 B(  4-C ,  5-C ) :   0.8803 B(  4-C , 17-F ) :   1.0187
B(  4-C , 18-F ) :   1.0170 B(  5-C ,  6-C ) :   0.8733 B(  5-C , 19-F ) :   1.0361
B(  5-C , 20-F ) :   1.0485 B(  6-C ,  7-C ) :   0.9008 B(  6-C , 21-F ) :   1.0348
B(  6-C , 22-F ) :   1.0323 B(  7-C , 23-O ) :   1.7341 B(  7-C , 24-O ) :   1.7341
B( 23-O , 28-H ) :   0.1257 B( 24-O , 27-H ) :   0.1180 B( 25-O , 26-H ) :   0.9036
B( 25-O , 27-H ) :   0.8188 B( 28-H , 29-O ) :   0.8244 B( 29-O , 30-H ) :   0.9045

Dispersion correction           -0.049177984
FINAL SINGLE POINT ENERGY     -2106.129162954491

DIPOLE MOMENT
-------------

Method             : SCF
Type of density    : Electron Density
Multiplicity       :   2
Irrep              :   0
Energy             : -2106.0799849701206767 Eh
Relativity type    :
Basis              : AO
                                X                 Y                 Z
Electronic contribution:      2.804457488      37.982739488       7.304660143
Nuclear contribution   :     -2.735211949     -31.178427876      -6.133348442
                        -----------------------------------------
Total Dipole Moment    :      0.069245539       6.804311612       1.171311702
                        -----------------------------------------
Magnitude (a.u.)       :      6.904739137
Magnitude (Debye)      :     17.550452130

VIBRATIONAL FREQUENCIES
-----------------------

Scaling factor for frequencies =  1.000000000  (already applied!)

     0:       0.00 cm**-1
     1:       0.00 cm**-1
     2:       0.00 cm**-1
     3:       0.00 cm**-1
     4:       0.00 cm**-1
     5:       0.00 cm**-1
     6:     -10.26 cm**-1  ***imaginary mode***
     7:      16.04 cm**-1
     8:      28.86 cm**-1
     9:      31.18 cm**-1
    10:      36.87 cm**-1
    11:      41.58 cm**-1
    12:      49.37 cm**-1
    13:      50.98 cm**-1
    14:      58.30 cm**-1
    15:      65.21 cm**-1
    16:      70.06 cm**-1
    17:      70.93 cm**-1
    18:      86.26 cm**-1
    19:      96.82 cm**-1
    20:     100.45 cm**-1
    21:     133.25 cm**-1
    22:     153.81 cm**-1
    23:     160.62 cm**-1
    24:     169.48 cm**-1
    25:     186.17 cm**-1
    26:     202.38 cm**-1
    27:     203.83 cm**-1
    28:     213.23 cm**-1
    29:     230.71 cm**-1
    30:     243.24 cm**-1
    31:     248.18 cm**-1
    32:     249.61 cm**-1
    33:     260.37 cm**-1
    34:     280.95 cm**-1
    35:     314.69 cm**-1
    36:     319.21 cm**-1
    37:     322.98 cm**-1
    38:     327.72 cm**-1
    39:     333.35 cm**-1
    40:     344.35 cm**-1
    41:     358.96 cm**-1
    42:     364.57 cm**-1
    43:     375.56 cm**-1
    44:     413.02 cm**-1
    45:     425.51 cm**-1
    46:     451.16 cm**-1
    47:     463.67 cm**-1
    48:     473.42 cm**-1
    49:     506.89 cm**-1
    50:     517.34 cm**-1
    51:     529.99 cm**-1
    52:     553.87 cm**-1
    53:     562.89 cm**-1
    54:     581.76 cm**-1
    55:     590.86 cm**-1
    56:     593.22 cm**-1
    57:     618.31 cm**-1
    58:     637.04 cm**-1
    59:     667.72 cm**-1
    60:     682.96 cm**-1
    61:     696.88 cm**-1
    62:     700.12 cm**-1
    63:     716.28 cm**-1
    64:     743.90 cm**-1
    65:     791.16 cm**-1
    66:     817.14 cm**-1
    67:     878.63 cm**-1
    68:     897.37 cm**-1
    69:     933.82 cm**-1
    70:     956.06 cm**-1
    71:     978.34 cm**-1
    72:    1003.90 cm**-1
    73:    1009.49 cm**-1
    74:    1032.60 cm**-1
    75:    1034.97 cm**-1
    76:    1044.26 cm**-1
    77:    1057.03 cm**-1
    78:    1076.12 cm**-1
    79:    1083.13 cm**-1
    80:    1098.02 cm**-1
    81:    1114.75 cm**-1
    82:    1140.90 cm**-1
    83:    1145.08 cm**-1
    84:    1249.99 cm**-1
    85:    1369.79 cm**-1
    86:    1659.04 cm**-1
    87:    1668.74 cm**-1
    88:    1682.74 cm**-1
    89:    3412.52 cm**-1
    90:    3441.38 cm**-1
    91:    3802.15 cm**-1
    92:    3810.20 cm**-1

IR SPECTRUM
-----------

 Mode   freq       eps      Int      T**2         TX        TY        TZ
       cm**-1   L/(mol*cm) km/mol    a.u.
----------------------------------------------------------------------------
  7:     16.04   0.000120    0.61  0.002342  ( 0.023823  0.040396 -0.011927)
  8:     28.86   0.000060    0.30  0.000648  ( 0.011462  0.021159  0.008313)
  9:     31.18   0.000104    0.53  0.001044  (-0.029688  0.010043  0.007856)
 10:     36.87   0.000289    1.46  0.002449  ( 0.047083  0.009574 -0.011872)
 11:     41.58   0.000293    1.48  0.002198  (-0.004459 -0.031226  0.034686)
 12:     49.37   0.000163    0.83  0.001033  ( 0.014445  0.026747 -0.010449)
 13:     50.98   0.000552    2.79  0.003378  (-0.053712  0.014302  0.016972)
 14:     58.30   0.000713    3.60  0.003818  ( 0.016647  0.054010  0.024970)
 15:     65.21   0.012171   61.51  0.058247  (-0.027495  0.163394  0.175480)
 16:     70.06   0.018745   94.73  0.083498  ( 0.083956 -0.185517 -0.205019)
 17:     70.93   0.000527    2.66  0.002317  (-0.009646  0.033775  0.032909)
 18:     86.26   0.000234    1.18  0.000846  (-0.006723  0.028051 -0.003774)
 19:     96.82   0.000872    4.41  0.002812  ( 0.012757 -0.042358 -0.029235)
 20:    100.45   0.003622   18.30  0.011251  ( 0.003797  0.095916  0.045135)
 21:    133.25   0.037908  191.57  0.088780  ( 0.007993 -0.282179 -0.095347)
 22:    153.81   0.019262   97.34  0.039081  ( 0.013616  0.193021  0.040482)
 23:    160.62   0.008916   45.06  0.017323  ( 0.037908 -0.083866 -0.094086)
 24:    169.48   0.021615  109.23  0.039798  (-0.088564  0.015981  0.178043)
 25:    186.17   0.001236    6.24  0.002071  ( 0.035436 -0.028503  0.001778)
 26:    202.38   0.004313   21.79  0.006650  ( 0.077280  0.012205  0.022997)
 27:    203.83   0.003020   15.26  0.004624  (-0.057071  0.001672 -0.036938)
 28:    213.23   0.001346    6.80  0.001970  (-0.038218 -0.011983 -0.019136)
 29:    230.71   0.002025   10.24  0.002740  (-0.043255 -0.009500 -0.027900)
 30:    243.24   0.000429    2.17  0.000551  (-0.018794 -0.008434 -0.011231)
 31:    248.18   0.004076   20.60  0.005125  (-0.012467 -0.067952 -0.018770)
 32:    249.61   0.013751   69.49  0.017192  (-0.002057 -0.127887 -0.028850)
 33:    260.37   0.000279    1.41  0.000334  ( 0.015706  0.001175  0.009291)
 34:    280.95   0.004557   23.03  0.005062  (-0.063924  0.010454 -0.029434)
 35:    314.69   0.005246   26.51  0.005203  ( 0.000952 -0.069679 -0.018619)
 36:    319.21   0.000114    0.58  0.000112  ( 0.003110 -0.010091 -0.000483)
 37:    322.98   0.017998   90.95  0.017390  ( 0.006502  0.126647  0.036162)
 38:    327.72   0.000017    0.09  0.000016  ( 0.001345 -0.003758 -0.000360)
 39:    333.35   0.001037    5.24  0.000971  (-0.001680 -0.027583 -0.014398)
 40:    344.35   0.015748   79.58  0.014271  (-0.002087  0.114584  0.033720)
 41:    358.96   0.000957    4.84  0.000832  (-0.007793 -0.027210 -0.005540)
 42:    364.57   0.000148    0.75  0.000127  (-0.005179 -0.006374 -0.007700)
 43:    375.56   0.005216   26.36  0.004334  ( 0.047061  0.039926  0.022909)
 44:    413.02   0.003269   16.52  0.002470  ( 0.049151 -0.007217  0.001469)
 45:    425.51   0.012938   65.39  0.009489  (-0.092848 -0.026781 -0.012289)
 46:    451.16   0.019256   97.31  0.013320  ( 0.086805  0.072539  0.022859)
 47:    463.67   0.000279    1.41  0.000188  (-0.006964 -0.002103  0.011606)
 48:    473.42   0.001137    5.74  0.000749  ( 0.000389 -0.026782  0.005638)
 49:    506.89   0.002604   13.16  0.001603  (-0.001665 -0.037540 -0.013827)
 50:    517.34   0.000163    0.82  0.000098  ( 0.002809  0.006784 -0.006666)
 51:    529.99   0.008043   40.65  0.004736  ( 0.016118  0.065669 -0.012794)
 52:    553.87   0.000670    3.38  0.000377  (-0.011508  0.015470  0.002361)
 53:    562.89   0.002194   11.09  0.001216  (-0.010932  0.007761  0.032197)
 54:    581.76   0.001133    5.73  0.000608  (-0.007496 -0.023480 -0.000626)
 55:    590.86   0.000707    3.57  0.000374  ( 0.008988  0.016355  0.005027)
 56:    593.22   0.000101    0.51  0.000053  ( 0.001615 -0.006841  0.001975)
 57:    618.31   0.009716   49.10  0.004904  (-0.003168  0.064590  0.026866)
 58:    637.04   0.072046  364.09  0.035293  ( 0.011727  0.182263  0.043997)
 59:    667.72   0.071153  359.58  0.033254  ( 0.003900  0.176041  0.047420)
 60:    682.96   0.033065  167.10  0.015108  (-0.001355  0.115560  0.041864)
 61:    696.88   0.032376  163.61  0.014498  ( 0.013327 -0.085098 -0.084134)
 62:    700.12   0.007663   38.73  0.003416  (-0.007004 -0.058023 -0.000109)
 63:    716.28   0.028490  143.98  0.012412  ( 0.053270 -0.033241 -0.092031)
 64:    743.90   0.031619  159.79  0.013264  (-0.010163  0.104645  0.047015)
 65:    791.16   0.006041   30.53  0.002383  ( 0.019466  0.035040 -0.027855)
 66:    817.14   0.033376  168.67  0.012746  (-0.022576 -0.110396  0.007016)
 67:    878.63   0.001345    6.79  0.000478  ( 0.004668 -0.020942  0.004145)
 68:    897.37   0.037452  189.27  0.013024  (-0.000413  0.108723  0.034686)
 69:    933.82   0.106698  539.21  0.035656  (-0.004246 -0.186788 -0.027356)
 70:    956.06   0.027500  138.97  0.008976  ( 0.042510 -0.069152  0.048856)
 71:    978.34   0.144193  728.69  0.045994  (-0.060034 -0.205849 -0.003970)
 72:   1003.90   0.138081  697.81  0.042922  (-0.018340  0.177624  0.105051)
 73:   1009.49   0.024575  124.19  0.007597  ( 0.074240 -0.012778  0.043840)
 74:   1032.60   0.380781  1924.31  0.115077  ( 0.088219 -0.213897 -0.248078)
 75:   1034.97   0.107442  542.97  0.032396  (-0.153883  0.056467 -0.074346)
 76:   1044.26   0.030617  154.72  0.009149  (-0.004297 -0.086346 -0.040930)
 77:   1057.03   0.140789  711.49  0.041565  (-0.107579 -0.167349 -0.044560)
 78:   1076.12   0.057517  290.67  0.016679  (-0.044709  0.099725 -0.068814)
 79:   1083.13   0.158983  803.44  0.045805  ( 0.171316 -0.127876 -0.010196)
 80:   1098.02   0.080438  406.50  0.022861  ( 0.016384  0.055164  0.139819)
 81:   1114.75   0.009113   46.05  0.002551  (-0.014208 -0.002243 -0.048416)
 82:   1140.90   0.108759  549.62  0.029748  ( 0.124037 -0.082317  0.087103)
 83:   1145.08   0.336712  1701.60  0.091763  ( 0.077680  0.287969  0.052939)
 84:   1249.99   0.227991  1152.17  0.056918  (-0.032000 -0.235703 -0.018401)
 85:   1369.79   0.172422  871.35  0.039281  ( 0.016767  0.195387  0.028698)
 86:   1659.04   0.037049  187.23  0.006969  (-0.036272  0.054622 -0.051669)
 87:   1668.74   0.120995  611.46  0.022627  ( 0.130758 -0.047934  0.056846)
 88:   1682.74   0.134475  679.58  0.024938  ( 0.148379  0.014268  0.052139)
 89:   3412.52   0.323648  1635.58  0.029597  ( 0.159177  0.002240  0.065224)
 90:   3441.38   0.118121  596.94  0.010711  ( 0.086362  0.019045  0.053759)
 91:   3802.15   0.018730   94.66  0.001537  (-0.034582 -0.018427 -0.001358)
 92:   3810.20   0.009116   46.07  0.000747  (-0.016504 -0.021747 -0.001142)

--------------------------
THERMOCHEMISTRY AT 298.15K
--------------------------

Temperature         ...   298.15 K
Pressure            ...     1.00 atm
Total Mass          ...   449.09 AMU
Quasi RRHO          ...     True
Cut-Off Frequency   ...     1.00 cm^-1

Throughout the following assumptions are being made:
  (1) The electronic state is orbitally nondegenerate
      but the spin degeneracy is treated
  (2) There are no thermally accessible electronically excited states
  (3) Hindered rotations indicated by low frequency modes are not
      treated as such but are treated as vibrations and this may
      cause some error
  (4) All equations used are the standard statistical mechanics
      equations for an ideal gas
  (5) All vibrations are strictly harmonic

freq.      16.04  E(vib)   ...       0.57
freq.      28.86  E(vib)   ...       0.55
freq.      31.18  E(vib)   ...       0.55
freq.      36.87  E(vib)   ...       0.54
freq.      41.58  E(vib)   ...       0.54
freq.      49.37  E(vib)   ...       0.52
freq.      50.98  E(vib)   ...       0.52
freq.      58.30  E(vib)   ...       0.51
freq.      65.21  E(vib)   ...       0.50
freq.      70.06  E(vib)   ...       0.50
freq.      70.93  E(vib)   ...       0.50
freq.      86.26  E(vib)   ...       0.48
freq.      96.82  E(vib)   ...       0.46
freq.     100.45  E(vib)   ...       0.46
freq.     133.25  E(vib)   ...       0.42
freq.     153.81  E(vib)   ...       0.40
freq.     160.62  E(vib)   ...       0.39
freq.     169.48  E(vib)   ...       0.38
freq.     186.17  E(vib)   ...       0.37
freq.     202.38  E(vib)   ...       0.35
freq.     203.83  E(vib)   ...       0.35
freq.     213.23  E(vib)   ...       0.34
freq.     230.71  E(vib)   ...       0.32
freq.     243.24  E(vib)   ...       0.31
freq.     248.18  E(vib)   ...       0.31
freq.     249.61  E(vib)   ...       0.31
freq.     260.37  E(vib)   ...       0.30
freq.     280.95  E(vib)   ...       0.28
freq.     314.69  E(vib)   ...       0.25
freq.     319.21  E(vib)   ...       0.25
freq.     322.98  E(vib)   ...       0.25
freq.     327.72  E(vib)   ...       0.24
freq.     333.35  E(vib)   ...       0.24
freq.     344.35  E(vib)   ...       0.23
freq.     358.96  E(vib)   ...       0.22
freq.     364.57  E(vib)   ...       0.22
freq.     375.56  E(vib)   ...       0.21
freq.     413.02  E(vib)   ...       0.19
freq.     425.51  E(vib)   ...       0.18
freq.     451.16  E(vib)   ...       0.16
freq.     463.67  E(vib)   ...       0.16
freq.     473.42  E(vib)   ...       0.15
freq.     506.89  E(vib)   ...       0.14
freq.     517.34  E(vib)   ...       0.13
freq.     529.99  E(vib)   ...       0.13
freq.     553.87  E(vib)   ...       0.12
freq.     562.89  E(vib)   ...       0.11
freq.     581.76  E(vib)   ...       0.11
freq.     590.86  E(vib)   ...       0.10
freq.     593.22  E(vib)   ...       0.10
freq.     618.31  E(vib)   ...       0.09
freq.     637.04  E(vib)   ...       0.09
freq.     667.72  E(vib)   ...       0.08
freq.     682.96  E(vib)   ...       0.08
freq.     696.88  E(vib)   ...       0.07
freq.     700.12  E(vib)   ...       0.07
freq.     716.28  E(vib)   ...       0.07
freq.     743.90  E(vib)   ...       0.06
freq.     791.16  E(vib)   ...       0.05
freq.     817.14  E(vib)   ...       0.05
freq.     878.63  E(vib)   ...       0.04
freq.     897.37  E(vib)   ...       0.03
freq.     933.82  E(vib)   ...       0.03
freq.     956.06  E(vib)   ...       0.03
freq.     978.34  E(vib)   ...       0.03
freq.    1003.90  E(vib)   ...       0.02
freq.    1009.49  E(vib)   ...       0.02
freq.    1032.60  E(vib)   ...       0.02
freq.    1034.97  E(vib)   ...       0.02
freq.    1044.26  E(vib)   ...       0.02
freq.    1057.03  E(vib)   ...       0.02
freq.    1076.12  E(vib)   ...       0.02
freq.    1083.13  E(vib)   ...       0.02
freq.    1098.02  E(vib)   ...       0.02
freq.    1114.75  E(vib)   ...       0.01
freq.    1140.90  E(vib)   ...       0.01
freq.    1145.08  E(vib)   ...       0.01
freq.    1249.99  E(vib)   ...       0.01
freq.    1369.79  E(vib)   ...       0.01
freq.    1659.04  E(vib)   ...       0.00
freq.    1668.74  E(vib)   ...       0.00
freq.    1682.74  E(vib)   ...       0.00
freq.    3412.52  E(vib)   ...       0.00
freq.    3441.38  E(vib)   ...       0.00
freq.    3802.15  E(vib)   ...       0.00
freq.    3810.20  E(vib)   ...       0.00

------------
INNER ENERGY
------------

The inner energy is: U= E(el) + E(ZPE) + E(vib) + E(rot) + E(trans)
    E(el)   - is the total energy from the electronic structure calculation
              = E(kin-el) + E(nuc-el) + E(el-el) + E(nuc-nuc)
    E(ZPE)  - the the zero temperature vibrational energy from the frequency calculation
    E(vib)  - the the finite temperature correction to E(ZPE) due to population
              of excited vibrational states
    E(rot)  - is the rotational thermal energy
    E(trans)- is the translational thermal energy

Summary of contributions to the inner energy U:
Electronic energy                ...  -2106.12916295 Eh
Zero point energy                ...      0.13695486 Eh      85.94 kcal/mol
Thermal vibrational correction   ...      0.02710842 Eh      17.01 kcal/mol
Thermal rotational correction    ...      0.00141627 Eh       0.89 kcal/mol
Thermal translational correction ...      0.00141627 Eh       0.89 kcal/mol
-----------------------------------------------------------------------
Total thermal energy                  -2105.96226713 Eh

Summary of corrections to the electronic energy:
(perhaps to be used in another calculation)
Total thermal correction                  0.02994096 Eh      18.79 kcal/mol
Non-thermal (ZPE) correction              0.13695486 Eh      85.94 kcal/mol
-----------------------------------------------------------------------
Total correction                          0.16689583 Eh     104.73 kcal/mol

--------
ENTHALPY
--------

The enthalpy is H = U + kB*T
                kB is Boltzmann's constant
Total thermal energy              ...  -2105.96226713 Eh
Thermal Enthalpy correction       ...      0.00094421 Eh       0.59 kcal/mol
-----------------------------------------------------------------------
Total Enthalpy                    ...  -2105.96132292 Eh

Note: Only C1 symmetry has been detected, increase convergence thresholds
      if your molecule has a higher symmetry. Symmetry factor of 1.0 is
      used for the rotational entropy correction.

Note: Rotational entropy computed according to Herzberg
Infrared and Raman Spectra, Chapter V,1, Van Nostrand Reinhold, 1945
Point Group:  C1, Symmetry Number:   1
Rotational constants in cm-1:     0.013455     0.002922     0.002713

Vibrational entropy computed according to the QRRHO of S. Grimme

                             ****ORCA TERMINATED NORMALLY****
TOTAL RUN TIME: 0 days 0 hours 30 minutes 6 seconds 352 msec
