                         Program Version 6.0.1  -  RELEASE   -
|  1> !r2scanh def2-TZVP freq d3 TightSCF SlowConv defgrid2
|  2>
|  3> %pal
|  4> nprocs 20
|  5> end
|  6>
|  7> %scf
|  8> MaxIter 1500
|  9> end
| 10>
| 11> %maxcore 8000
| 12>
| 13> !CPCM
| 14> %cpcm smd true
| 15> SMDsolvent "ACETONITRILE"
| 16> end
| 17>
| 18> * xyz -1 2
| 19> 6        3.557458000     -0.179350000     -1.195866000
| 20> 8        4.153255000     -1.105152000     -1.752155000
| 21> 8        2.998510000      0.834976000     -1.643515000
| 22> 6        3.517599000     -0.233063000      0.376081000
| 23> 6        2.243856000      0.254267000      0.973562000
| 24> 6        0.957496000     -0.476116000      0.882434000
| 25> 6       -0.256662000      0.426459000      0.513334000
| 26> 6       -1.503521000     -0.371163000      0.025688000
| 27> 6       -2.818262000      0.459109000      0.100844000
| 28> 6       -3.967707000     -0.107639000     -0.776367000
| 29> 9        3.763170000     -1.492102000      0.849472000
| 30> 9        4.529202000      0.564325000      0.843881000
| 31> 9        2.177726000      1.518310000      1.370610000
| 32> 9        1.066708000     -1.454987000     -0.047148000
| 33> 9        0.648722000     -1.087411000      2.064265000
| 34> 9       -0.598034000      1.148187000      1.596686000
| 35> 9        0.102230000      1.265136000     -0.467906000
| 36> 9       -1.664319000     -1.471898000      0.774705000
| 37> 9       -1.299378000     -0.744773000     -1.247932000
| 38> 9       -2.585075000      1.718085000     -0.301363000
| 39> 9       -3.245552000      0.479187000      1.370263000
| 40> 9       -4.122310000     -1.409138000     -0.557593000
| 41> 9       -5.095235000      0.517804000     -0.458611000
| 42> 9       -3.722621000      0.090799000     -2.064059000
| 43> *
| 44>
| 45>                          ****END OF INPUT****

CARTESIAN COORDINATES (ANGSTROEM)
---------------------------------
  C      3.557458   -0.179350   -1.195866
  O      4.153255   -1.105152   -1.752155
  O      2.998510    0.834976   -1.643515
  C      3.517599   -0.233063    0.376081
  C      2.243856    0.254267    0.973562
  C      0.957496   -0.476116    0.882434
  C     -0.256662    0.426459    0.513334
  C     -1.503521   -0.371163    0.025688
  C     -2.818262    0.459109    0.100844
  C     -3.967707   -0.107639   -0.776367
  F      3.763170   -1.492102    0.849472
  F      4.529202    0.564325    0.843881
  F      2.177726    1.518310    1.370610
  F      1.066708   -1.454987   -0.047148
  F      0.648722   -1.087411    2.064265
  F     -0.598034    1.148187    1.596686
  F      0.102230    1.265136   -0.467906
  F     -1.664319   -1.471898    0.774705
  F     -1.299378   -0.744773   -1.247932
  F     -2.585075    1.718085   -0.301363
  F     -3.245552    0.479187    1.370263
  F     -4.122310   -1.409138   -0.557593
  F     -5.095235    0.517804   -0.458611
  F     -3.722621    0.090799   -2.064059

 Total Charge           Charge          ....   -1
 Multiplicity           Mult            ....    2
 Number of Electrons    NEL             ....  191
 Basis Dimension        Dim             ....  744

ORBITAL ENERGIES
----------------
                 SPIN UP ORBITALS
  NO   OCC          E(Eh)            E(eV)
   0   1.0000     -24.731616      -672.9815
   1   1.0000     -24.730404      -672.9485
   2   1.0000     -24.730307      -672.9459
   3   1.0000     -24.729827      -672.9328
   4   1.0000     -24.729072      -672.9123
   5   1.0000     -24.728751      -672.9035
   6   1.0000     -24.728624      -672.9001
   7   1.0000     -24.724929      -672.7995
   8   1.0000     -24.722287      -672.7276
   9   1.0000     -24.719580      -672.6540
  10   1.0000     -24.717185      -672.5888
  11   1.0000     -24.706591      -672.3005
  12   1.0000     -24.683449      -671.6708
  13   1.0000     -24.679030      -671.5506
  14   1.0000     -19.053812      -518.4806
  15   1.0000     -19.050621      -518.3938
  16   1.0000     -10.439050      -284.0610
  17   1.0000     -10.383896      -282.5602
  18   1.0000     -10.383568      -282.5513
  19   1.0000     -10.377613      -282.3892
  20   1.0000     -10.369262      -282.1620
  21   1.0000     -10.319921      -280.8193
  22   1.0000     -10.275879      -279.6209
  23   1.0000     -10.233522      -278.4683
  24   1.0000      -1.360786       -37.0289
  25   1.0000      -1.333282       -36.2805
  26   1.0000      -1.316161       -35.8146
  27   1.0000      -1.310933       -35.6723
  28   1.0000      -1.297387       -35.3037
  29   1.0000      -1.277712       -34.7683
  30   1.0000      -1.271846       -34.6087
  31   1.0000      -1.265988       -34.4493
  32   1.0000      -1.263358       -34.3777
  33   1.0000      -1.260168       -34.2909
  34   1.0000      -1.256271       -34.1849
  35   1.0000      -1.251949       -34.0673
  36   1.0000      -1.237005       -33.6606
  37   1.0000      -1.205330       -32.7987
  38   1.0000      -1.031573       -28.0705
  39   1.0000      -0.947834       -25.7919
  40   1.0000      -0.843907       -22.9639
  41   1.0000      -0.826944       -22.5023
  42   1.0000      -0.792593       -21.5675
  43   1.0000      -0.747977       -20.3535
  44   1.0000      -0.705454       -19.1964
  45   1.0000      -0.677816       -18.4443
  46   1.0000      -0.650895       -17.7118
  47   1.0000      -0.637980       -17.3603
  48   1.0000      -0.633495       -17.2383
  49   1.0000      -0.627466       -17.0742
  50   1.0000      -0.614773       -16.7288
  51   1.0000      -0.609168       -16.5763
  52   1.0000      -0.607910       -16.5421
  53   1.0000      -0.593749       -16.1567
  54   1.0000      -0.590702       -16.0738
  55   1.0000      -0.580338       -15.7918
  56   1.0000      -0.575402       -15.6575
  57   1.0000      -0.568134       -15.4597
  58   1.0000      -0.565240       -15.3810
  59   1.0000      -0.550312       -14.9747
  60   1.0000      -0.534184       -14.5359
  61   1.0000      -0.502020       -13.6606
  62   1.0000      -0.500226       -13.6118
  63   1.0000      -0.497007       -13.5243
  64   1.0000      -0.490731       -13.3535
  65   1.0000      -0.485208       -13.2032
  66   1.0000      -0.484181       -13.1752
  67   1.0000      -0.476858       -12.9760
  68   1.0000      -0.470406       -12.8004
  69   1.0000      -0.468120       -12.7382
  70   1.0000      -0.461621       -12.5613
  71   1.0000      -0.457750       -12.4560
  72   1.0000      -0.453992       -12.3538
  73   1.0000      -0.448658       -12.2086
  74   1.0000      -0.448168       -12.1953
  75   1.0000      -0.439799       -11.9675
  76   1.0000      -0.436903       -11.8887
  77   1.0000      -0.435621       -11.8539
  78   1.0000      -0.430720       -11.7205
  79   1.0000      -0.428077       -11.6486
  80   1.0000      -0.427427       -11.6309
  81   1.0000      -0.425555       -11.5800
  82   1.0000      -0.421264       -11.4632
  83   1.0000      -0.419228       -11.4078
  84   1.0000      -0.415789       -11.3142
  85   1.0000      -0.409218       -11.1354
  86   1.0000      -0.397401       -10.8138
  87   1.0000      -0.391536       -10.6542
  88   1.0000      -0.384519       -10.4633
  89   1.0000      -0.374502       -10.1907
  90   1.0000      -0.362251        -9.8574
  91   1.0000      -0.330564        -8.9951
  92   1.0000      -0.257761        -7.0140
  93   1.0000      -0.243810        -6.6344
  94   1.0000      -0.226739        -6.1699
  95   1.0000      -0.211194        -5.7469
  96   0.0000      -0.012866        -0.3501
  97   0.0000       0.009161         0.2493
  98   0.0000       0.023241         0.6324
  99   0.0000       0.055105         1.4995
 100   0.0000       0.064776         1.7626

                 SPIN DOWN ORBITALS
  NO   OCC          E(Eh)            E(eV)
   0   1.0000     -24.731617      -672.9815
   1   1.0000     -24.730405      -672.9485
   2   1.0000     -24.730307      -672.9459
   3   1.0000     -24.729822      -672.9327
   4   1.0000     -24.729069      -672.9122
   5   1.0000     -24.728747      -672.9034
   6   1.0000     -24.728625      -672.9001
   7   1.0000     -24.724817      -672.7965
   8   1.0000     -24.722274      -672.7273
   9   1.0000     -24.716795      -672.5782
  10   1.0000     -24.714950      -672.5280
  11   1.0000     -24.704753      -672.2505
  12   1.0000     -24.683251      -671.6654
  13   1.0000     -24.678203      -671.5280
  14   1.0000     -19.052448      -518.4435
  15   1.0000     -19.050103      -518.3796
  16   1.0000     -10.439043      -284.0608
  17   1.0000     -10.383854      -282.5590
  18   1.0000     -10.383550      -282.5508
  19   1.0000     -10.377286      -282.3803
  20   1.0000     -10.370054      -282.1835
  21   1.0000     -10.320795      -280.8431
  22   1.0000     -10.259280      -279.1692
  23   1.0000     -10.232891      -278.4511
  24   1.0000      -1.360780       -37.0287
  25   1.0000      -1.333116       -36.2759
  26   1.0000      -1.315905       -35.8076
  27   1.0000      -1.310749       -35.6673
  28   1.0000      -1.295813       -35.2609
  29   1.0000      -1.271837       -34.6084
  30   1.0000      -1.271006       -34.5858
  31   1.0000      -1.265983       -34.4491
  32   1.0000      -1.263291       -34.3759
  33   1.0000      -1.257672       -34.2230
  34   1.0000      -1.256206       -34.1831
  35   1.0000      -1.251806       -34.0634
  36   1.0000      -1.234460       -33.5914
  37   1.0000      -1.204113       -32.7656
  38   1.0000      -1.030017       -28.0282
  39   1.0000      -0.946051       -25.7434
  40   1.0000      -0.841639       -22.9022
  41   1.0000      -0.817227       -22.2379
  42   1.0000      -0.783304       -21.3148
  43   1.0000      -0.744669       -20.2635
  44   1.0000      -0.704238       -19.1633
  45   1.0000      -0.676534       -18.4094
  46   1.0000      -0.645375       -17.5616
  47   1.0000      -0.637195       -17.3390
  48   1.0000      -0.631174       -17.1751
  49   1.0000      -0.627327       -17.0704
  50   1.0000      -0.614400       -16.7187
  51   1.0000      -0.607969       -16.5437
  52   1.0000      -0.605923       -16.4880
  53   1.0000      -0.592894       -16.1335
  54   1.0000      -0.588658       -16.0182
  55   1.0000      -0.578012       -15.7285
  56   1.0000      -0.573467       -15.6048
  57   1.0000      -0.564365       -15.3572
  58   1.0000      -0.562068       -15.2946
  59   1.0000      -0.547769       -14.9055
  60   1.0000      -0.532795       -14.4981
  61   1.0000      -0.501923       -13.6580
  62   1.0000      -0.496971       -13.5233
  63   1.0000      -0.491969       -13.3872
  64   1.0000      -0.487420       -13.2634
  65   1.0000      -0.484575       -13.1860
  66   1.0000      -0.477137       -12.9836
  67   1.0000      -0.470335       -12.7985
  68   1.0000      -0.469904       -12.7867
  69   1.0000      -0.466725       -12.7002
  70   1.0000      -0.458611       -12.4794
  71   1.0000      -0.456159       -12.4127
  72   1.0000      -0.452353       -12.3091
  73   1.0000      -0.448248       -12.1974
  74   1.0000      -0.446645       -12.1538
  75   1.0000      -0.438199       -11.9240
  76   1.0000      -0.436578       -11.8799
  77   1.0000      -0.435423       -11.8485
  78   1.0000      -0.429920       -11.6987
  79   1.0000      -0.427232       -11.6256
  80   1.0000      -0.425500       -11.5784
  81   1.0000      -0.423339       -11.5196
  82   1.0000      -0.419905       -11.4262
  83   1.0000      -0.418148       -11.3784
  84   1.0000      -0.414606       -11.2820
  85   1.0000      -0.407655       -11.0928
  86   1.0000      -0.396497       -10.7892
  87   1.0000      -0.389740       -10.6054
  88   1.0000      -0.382075       -10.3968
  89   1.0000      -0.373589       -10.1659
  90   1.0000      -0.358771        -9.7626
  91   1.0000      -0.327951        -8.9240
  92   1.0000      -0.243638        -6.6297
  93   1.0000      -0.228529        -6.2186
  94   1.0000      -0.224505        -6.1091
  95   0.0000      -0.094092        -2.5604
  96   0.0000      -0.011356        -0.3090
  97   0.0000       0.010859         0.2955
  98   0.0000       0.027000         0.7347
  99   0.0000       0.059114         1.6086

MULLIKEN ATOMIC CHARGES AND SPIN POPULATIONS
--------------------------------------------
   0 C :    0.208553    0.017057
   1 O :   -0.501321    0.038743
   2 O :   -0.519125    0.013562
   3 C :    0.379884   -0.039174
   4 C :    0.077670    0.830888
   5 C :    0.367250   -0.000891
   6 C :    0.320556    0.005674
   7 C :    0.300787    0.001942
   8 C :    0.328536    0.000634
   9 C :    0.470722    0.000224
  10 F :   -0.214254    0.012184
  11 F :   -0.217307    0.003139
  12 F :   -0.174209    0.078376
  13 F :   -0.185396    0.006068
  14 F :   -0.187799    0.028979
  15 F :   -0.172058    0.001698
  16 F :   -0.162399    0.000743
  17 F :   -0.164742   -0.000070
  18 F :   -0.165599    0.000104
  19 F :   -0.163686    0.000005
  20 F :   -0.161234    0.000036
  21 F :   -0.156412   -0.000009
  22 F :   -0.154169    0.000080
  23 F :   -0.154247    0.000007
Sum of atomic charges         :   -1.0000000

LOEWDIN ATOMIC CHARGES AND SPIN POPULATIONS
-------------------------------------------
   0 C :   -0.687443    0.018523
   1 O :   -0.038705    0.035185
   2 O :   -0.050843    0.013337
   3 C :   -0.470972    0.048834
   4 C :   -0.188513    0.644599
   5 C :   -0.475746    0.069488
   6 C :   -0.465795    0.009241
   7 C :   -0.471816    0.002054
   8 C :   -0.478868    0.000685
   9 C :   -0.679659    0.000199
  10 F :    0.154196    0.014611
  11 F :    0.153177    0.003308
  12 F :    0.232037    0.096669
  13 F :    0.216231    0.007858
  14 F :    0.181429    0.032343
  15 F :    0.222411    0.002340
  16 F :    0.235091    0.000405
  17 F :    0.231148    0.000039
  18 F :    0.228718    0.000138
  19 F :    0.229590   -0.000006
  20 F :    0.230521    0.000061
  21 F :    0.230410   -0.000006
  22 F :    0.230758    0.000087
  23 F :    0.232641    0.000007

  Mayer bond orders larger than 0.100000
B(  0-C ,  1-O ) :   1.8361 B(  0-C ,  2-O ) :   1.8100 B(  0-C ,  3-C ) :   0.8624
B(  3-C ,  4-C ) :   0.9927 B(  3-C , 10-F ) :   1.0340 B(  3-C , 11-F ) :   1.0017
B(  4-C ,  5-C ) :   1.0561 B(  4-C , 12-F ) :   1.0715 B(  5-C ,  6-C ) :   0.9133
B(  5-C , 13-F ) :   1.0400 B(  5-C , 14-F ) :   1.0438 B(  6-C ,  7-C ) :   0.9205
B(  6-C , 15-F ) :   1.0644 B(  6-C , 16-F ) :   1.0927 B(  7-C ,  8-C ) :   0.9323
B(  7-C , 17-F ) :   1.0851 B(  7-C , 18-F ) :   1.0902 B(  8-C ,  9-C ) :   0.9539
B(  8-C , 19-F ) :   1.0831 B(  8-C , 20-F ) :   1.0965 B(  9-C , 21-F ) :   1.1291
B(  9-C , 22-F ) :   1.1327 B(  9-C , 23-F ) :   1.1427

Dispersion correction           -0.008299407
FINAL SINGLE POINT ENERGY     -1853.114513597377

DIPOLE MOMENT
-------------

Method             : SCF
Type of density    : Electron Density
Multiplicity       :   2
Irrep              :   0
Energy             : -1853.1062141901136329 Eh
Relativity type    :
Basis              : AO
                                X                 Y                 Z
Electronic contribution:    -14.170891458       0.454202702       4.940012471
Nuclear contribution   :      7.585640031      -0.127229167      -2.606788668
                        -----------------------------------------
Total Dipole Moment    :     -6.585251426       0.326973535       2.333223803
                        -----------------------------------------
Magnitude (a.u.)       :      6.994024689
Magnitude (Debye)      :     17.777397967

VIBRATIONAL FREQUENCIES
-----------------------

Scaling factor for frequencies =  1.000000000  (already applied!)

     0:       0.00 cm**-1
     1:       0.00 cm**-1
     2:       0.00 cm**-1
     3:       0.00 cm**-1
     4:       0.00 cm**-1
     5:       0.00 cm**-1
     6:      21.22 cm**-1
     7:      25.85 cm**-1
     8:      38.42 cm**-1
     9:      41.84 cm**-1
    10:      48.42 cm**-1
    11:      57.22 cm**-1
    12:      64.11 cm**-1
    13:      83.01 cm**-1
    14:      94.78 cm**-1
    15:     126.29 cm**-1
    16:     147.77 cm**-1
    17:     184.26 cm**-1
    18:     189.59 cm**-1
    19:     202.29 cm**-1
    20:     213.37 cm**-1
    21:     227.56 cm**-1
    22:     246.59 cm**-1
    23:     250.13 cm**-1
    24:     252.51 cm**-1
    25:     284.88 cm**-1
    26:     291.82 cm**-1
    27:     310.06 cm**-1
    28:     323.06 cm**-1
    29:     342.39 cm**-1
    30:     351.55 cm**-1
    31:     364.12 cm**-1
    32:     369.28 cm**-1
    33:     382.21 cm**-1
    34:     402.31 cm**-1
    35:     433.13 cm**-1
    36:     453.79 cm**-1
    37:     479.35 cm**-1
    38:     524.70 cm**-1
    39:     534.29 cm**-1
    40:     571.58 cm**-1
    41:     577.31 cm**-1
    42:     605.99 cm**-1
    43:     610.19 cm**-1
    44:     630.68 cm**-1
    45:     660.14 cm**-1
    46:     699.32 cm**-1
    47:     722.64 cm**-1
    48:     755.63 cm**-1
    49:     777.72 cm**-1
    50:     806.32 cm**-1
    51:     879.83 cm**-1
    52:     991.50 cm**-1
    53:    1032.16 cm**-1
    54:    1060.41 cm**-1
    55:    1092.46 cm**-1
    56:    1122.33 cm**-1
    57:    1139.40 cm**-1
    58:    1149.58 cm**-1
    59:    1170.90 cm**-1
    60:    1173.86 cm**-1
    61:    1184.29 cm**-1
    62:    1186.46 cm**-1
    63:    1208.03 cm**-1
    64:    1225.01 cm**-1
    65:    1257.48 cm**-1
    66:    1298.47 cm**-1
    67:    1337.59 cm**-1
    68:    1360.38 cm**-1
    69:    1367.78 cm**-1
    70:    1411.07 cm**-1
    71:    1747.54 cm**-1

IR SPECTRUM
-----------

 Mode   freq       eps      Int      T**2         TX        TY        TZ
       cm**-1   L/(mol*cm) km/mol    a.u.
----------------------------------------------------------------------------
  6:     21.22   0.000957    4.84  0.014077  (-0.089223  0.070810 -0.033199)
  7:     25.85   0.000731    3.70  0.008831  (-0.050873 -0.074960 -0.024971)
  8:     38.42   0.000011    0.05  0.000087  ( 0.003488 -0.008256 -0.002613)
  9:     41.84   0.000408    2.06  0.003040  (-0.043611 -0.033225  0.005842)
 10:     48.42   0.000135    0.68  0.000870  ( 0.021821  0.019786  0.001422)
 11:     57.22   0.000067    0.34  0.000366  (-0.012211  0.013081  0.006769)
 12:     64.11   0.000173    0.87  0.000842  (-0.016630  0.020776  0.011553)
 13:     83.01   0.000598    3.02  0.002247  ( 0.045805 -0.009665 -0.007462)
 14:     94.78   0.000873    4.41  0.002875  ( 0.047871  0.021371 -0.011273)
 15:    126.29   0.000074    0.38  0.000183  ( 0.010368  0.007359 -0.004671)
 16:    147.77   0.000286    1.45  0.000604  (-0.009356  0.015464  0.016651)
 17:    184.26   0.000903    4.56  0.001529  (-0.020605  0.010971  0.031372)
 18:    189.59   0.001075    5.43  0.001769  (-0.025300 -0.011681  0.031507)
 19:    202.29   0.001878    9.49  0.002897  (-0.012994 -0.026762  0.044860)
 20:    213.37   0.000778    3.93  0.001138  ( 0.025439 -0.000555 -0.022148)
 21:    227.56   0.000046    0.23  0.000064  (-0.003918  0.005988  0.003540)
 22:    246.59   0.000234    1.18  0.000296  ( 0.014404  0.009412 -0.000238)
 23:    250.13   0.000082    0.41  0.000102  ( 0.004452  0.006249  0.006600)
 24:    252.51   0.000530    2.68  0.000656  ( 0.021219  0.012516  0.006974)
 25:    284.88   0.001902    9.61  0.002084  (-0.044767  0.008715 -0.001962)
 26:    291.82   0.000318    1.61  0.000340  ( 0.015565  0.009565 -0.002464)
 27:    310.06   0.000091    0.46  0.000091  ( 0.000274 -0.004452  0.008457)
 28:    323.06   0.000553    2.79  0.000534  ( 0.022467  0.005400 -0.000133)
 29:    342.39   0.000198    1.00  0.000181  (-0.002762  0.003432  0.012701)
 30:    351.55   0.000705    3.56  0.000626  ( 0.013160  0.008951  0.019310)
 31:    364.12   0.000092    0.47  0.000079  ( 0.006379  0.004872 -0.003844)
 32:    369.28   0.000040    0.20  0.000034  (-0.002298  0.005044 -0.001727)
 33:    382.21   0.000116    0.59  0.000095  (-0.009688 -0.000525  0.000758)
 34:    402.31   0.000041    0.21  0.000032  (-0.004886  0.001737 -0.002156)
 35:    433.13   0.000732    3.70  0.000527  ( 0.014396  0.017468  0.003881)
 36:    453.79   0.003448   17.43  0.002371  ( 0.045399 -0.008029  0.015682)
 37:    479.35   0.001635    8.26  0.001065  ( 0.032285 -0.002591 -0.003942)
 38:    524.70   0.001451    7.33  0.000863  (-0.029006 -0.004328  0.001749)
 39:    534.29   0.004210   21.28  0.002459  (-0.039613  0.028948  0.007211)
 40:    571.58   0.002246   11.35  0.001226  (-0.018631 -0.028036 -0.009649)
 41:    577.31   0.008220   41.54  0.004443  ( 0.059632  0.029012  0.006743)
 42:    605.99   0.001121    5.67  0.000578  (-0.012036  0.006986 -0.019592)
 43:    610.19   0.007906   39.95  0.004043  ( 0.063290 -0.005875  0.001773)
 44:    630.68   0.001696    8.57  0.000839  (-0.018636 -0.001226 -0.022149)
 45:    660.14   0.025198  127.34  0.011912  (-0.108640 -0.004171 -0.009587)
 46:    699.32   0.025813  130.45  0.011519  (-0.107275  0.003319  0.000130)
 47:    722.64   0.001598    8.08  0.000690  (-0.010000  0.002533  0.024161)
 48:    755.63   0.012860   64.99  0.005311  (-0.000763 -0.009696  0.072224)
 49:    777.72   0.007168   36.23  0.002876  ( 0.008918 -0.020810  0.048618)
 50:    806.32   0.015603   78.85  0.006039  (-0.039250 -0.019270 -0.064240)
 51:    879.83   0.001008    5.09  0.000357  ( 0.013415 -0.010876  0.007692)
 52:    991.50   0.001522    7.69  0.000479  (-0.020045  0.005293  0.007024)
 53:   1032.16   0.056921  287.65  0.017209  ( 0.083652  0.046653 -0.089640)
 54:   1060.41   0.040834  206.36  0.012017  (-0.011670 -0.108931  0.003836)
 55:   1092.46   0.042168  213.10  0.012045  ( 0.055082 -0.025013  0.091574)
 56:   1122.33   0.009120   46.09  0.002536  ( 0.018732  0.023334  0.040503)
 57:   1139.40   0.015022   75.92  0.004114  (-0.043278  0.040225 -0.024967)
 58:   1149.58   0.145395  734.77  0.039469  (-0.007285  0.173489  0.096526)
 59:   1170.90   0.034159  172.63  0.009104  (-0.006943 -0.056213  0.076784)
 60:   1173.86   0.042443  214.49  0.011283  (-0.005199 -0.091525  0.053661)
 61:   1184.29   0.042622  215.40  0.011231  (-0.001711  0.102765 -0.025836)
 62:   1186.46   0.091558  462.70  0.024082  (-0.066277  0.018872  0.139042)
 63:   1208.03   0.107907  545.32  0.027875  ( 0.048150  0.076448 -0.140400)
 64:   1225.01   0.007871   39.78  0.002005  (-0.035879  0.025615  0.007859)
 65:   1257.48   0.024465  123.63  0.006071  (-0.060576  0.042331  0.024696)
 66:   1298.47   0.005402   27.30  0.001298  ( 0.003496 -0.034192 -0.010811)
 67:   1337.59   0.061200  309.28  0.014278  (-0.045174 -0.026362 -0.107436)
 68:   1360.38   0.001020    5.15  0.000234  ( 0.013387 -0.001531  0.007233)
 69:   1367.78   0.042353  214.04  0.009663  ( 0.079604  0.011936 -0.056425)
 70:   1411.07   0.005973   30.19  0.001321  (-0.003135 -0.032723  0.015503)
 71:   1747.54   0.153513  775.79  0.027413  ( 0.086939 -0.140062 -0.015413)

--------------------------
THERMOCHEMISTRY AT 298.15K
--------------------------

Temperature         ...   298.15 K
Pressure            ...     1.00 atm
Total Mass          ...   394.06 AMU
Quasi RRHO          ...     True
Cut-Off Frequency   ...     1.00 cm^-1

Throughout the following assumptions are being made:
  (1) The electronic state is orbitally nondegenerate
      but the spin degeneracy is treated
  (2) There are no thermally accessible electronically excited states
  (3) Hindered rotations indicated by low frequency modes are not
      treated as such but are treated as vibrations and this may
      cause some error
  (4) All equations used are the standard statistical mechanics
      equations for an ideal gas
  (5) All vibrations are strictly harmonic

freq.      21.22  E(vib)   ...       0.56
freq.      25.85  E(vib)   ...       0.56
freq.      38.42  E(vib)   ...       0.54
freq.      41.84  E(vib)   ...       0.53
freq.      48.42  E(vib)   ...       0.53
freq.      57.22  E(vib)   ...       0.51
freq.      64.11  E(vib)   ...       0.51
freq.      83.01  E(vib)   ...       0.48
freq.      94.78  E(vib)   ...       0.47
freq.     126.29  E(vib)   ...       0.43
freq.     147.77  E(vib)   ...       0.41
freq.     184.26  E(vib)   ...       0.37
freq.     189.59  E(vib)   ...       0.36
freq.     202.29  E(vib)   ...       0.35
freq.     213.37  E(vib)   ...       0.34
freq.     227.56  E(vib)   ...       0.33
freq.     246.59  E(vib)   ...       0.31
freq.     250.13  E(vib)   ...       0.31
freq.     252.51  E(vib)   ...       0.30
freq.     284.88  E(vib)   ...       0.28
freq.     291.82  E(vib)   ...       0.27
freq.     310.06  E(vib)   ...       0.26
freq.     323.06  E(vib)   ...       0.25
freq.     342.39  E(vib)   ...       0.23
freq.     351.55  E(vib)   ...       0.23
freq.     364.12  E(vib)   ...       0.22
freq.     369.28  E(vib)   ...       0.21
freq.     382.21  E(vib)   ...       0.21
freq.     402.31  E(vib)   ...       0.19
freq.     433.13  E(vib)   ...       0.17
freq.     453.79  E(vib)   ...       0.16
freq.     479.35  E(vib)   ...       0.15
freq.     524.70  E(vib)   ...       0.13
freq.     534.29  E(vib)   ...       0.13
freq.     571.58  E(vib)   ...       0.11
freq.     577.31  E(vib)   ...       0.11
freq.     605.99  E(vib)   ...       0.10
freq.     610.19  E(vib)   ...       0.10
freq.     630.68  E(vib)   ...       0.09
freq.     660.14  E(vib)   ...       0.08
freq.     699.32  E(vib)   ...       0.07
freq.     722.64  E(vib)   ...       0.07
freq.     755.63  E(vib)   ...       0.06
freq.     777.72  E(vib)   ...       0.05
freq.     806.32  E(vib)   ...       0.05
freq.     879.83  E(vib)   ...       0.04
freq.     991.50  E(vib)   ...       0.02
freq.    1032.16  E(vib)   ...       0.02
freq.    1060.41  E(vib)   ...       0.02
freq.    1092.46  E(vib)   ...       0.02
freq.    1122.33  E(vib)   ...       0.01
freq.    1139.40  E(vib)   ...       0.01
freq.    1149.58  E(vib)   ...       0.01
freq.    1170.90  E(vib)   ...       0.01
freq.    1173.86  E(vib)   ...       0.01
freq.    1184.29  E(vib)   ...       0.01
freq.    1186.46  E(vib)   ...       0.01
freq.    1208.03  E(vib)   ...       0.01
freq.    1225.01  E(vib)   ...       0.01
freq.    1257.48  E(vib)   ...       0.01
freq.    1298.47  E(vib)   ...       0.01
freq.    1337.59  E(vib)   ...       0.01
freq.    1360.38  E(vib)   ...       0.01
freq.    1367.78  E(vib)   ...       0.01
freq.    1411.07  E(vib)   ...       0.00
freq.    1747.54  E(vib)   ...       0.00

------------
INNER ENERGY
------------

The inner energy is: U= E(el) + E(ZPE) + E(vib) + E(rot) + E(trans)
    E(el)   - is the total energy from the electronic structure calculation
              = E(kin-el) + E(nuc-el) + E(el-el) + E(nuc-nuc)
    E(ZPE)  - the the zero temperature vibrational energy from the frequency calculation
    E(vib)  - the the finite temperature correction to E(ZPE) due to population
              of excited vibrational states
    E(rot)  - is the rotational thermal energy
    E(trans)- is the translational thermal energy

Summary of contributions to the inner energy U:
Electronic energy                ...  -1853.11451360 Eh
Zero point energy                ...      0.09380628 Eh      58.86 kcal/mol
Thermal vibrational correction   ...      0.01976634 Eh      12.40 kcal/mol
Thermal rotational correction    ...      0.00141627 Eh       0.89 kcal/mol
Thermal translational correction ...      0.00141627 Eh       0.89 kcal/mol
-----------------------------------------------------------------------
Total thermal energy                  -1852.99810844 Eh

Summary of corrections to the electronic energy:
(perhaps to be used in another calculation)
Total thermal correction                  0.02259888 Eh      14.18 kcal/mol
Non-thermal (ZPE) correction              0.09380628 Eh      58.86 kcal/mol
-----------------------------------------------------------------------
Total correction                          0.11640516 Eh      73.05 kcal/mol

--------
ENTHALPY
--------

The enthalpy is H = U + kB*T
                kB is Boltzmann's constant
Total thermal energy              ...  -1852.99810844 Eh
Thermal Enthalpy correction       ...      0.00094421 Eh       0.59 kcal/mol
-----------------------------------------------------------------------
Total Enthalpy                    ...  -1852.99716423 Eh

Note: Only C1 symmetry has been detected, increase convergence thresholds
      if your molecule has a higher symmetry. Symmetry factor of 1.0 is
      used for the rotational entropy correction.

Note: Rotational entropy computed according to Herzberg
Infrared and Raman Spectra, Chapter V,1, Van Nostrand Reinhold, 1945
Point Group:  C1, Symmetry Number:   1
Rotational constants in cm-1:     0.018839     0.004455     0.004330

Vibrational entropy computed according to the QRRHO of S. Grimme
Chem.Eur.J. 2012 18 9955 using a reference frequency of 100.0 cm-1

-------
ENTROPY
-------

The entropy contributions are T*S = T*(S(el)+S(vib)+S(rot)+S(trans))
     S(el)   - electronic entropy
     S(vib)  - vibrational entropy
     S(rot)  - rotational entropy
     S(trans)- translational entropy
The entropies will be listed as multiplied by the temperature to get
units of energy

Electronic entropy                ...      0.00065446 Eh      0.41 kcal/mol
Vibrational entropy               ...      0.03575977 Eh     22.44 kcal/mol
Rotational entropy                ...      0.01651085 Eh     10.36 kcal/mol
Translational entropy             ...      0.02081341 Eh     13.06 kcal/mol
-----------------------------------------------------------------------

                             ****ORCA TERMINATED NORMALLY****
TOTAL RUN TIME: 0 days 0 hours 23 minutes 43 seconds 820 msec
