                         Program Version 6.0.1  -  RELEASE   -
|  1> !TPSSh def2-TZVP freq d3 TightSCF SlowConv defgrid2
|  2>
|  3> %pal
|  4> nprocs 20
|  5> end
|  6>
|  7> %scf
|  8> MaxIter 1500
|  9> end
| 10>
| 11> %maxcore 8000
| 12>
| 13> !CPCM
| 14> %cpcm smd true
| 15> SMDsolvent "ACETONITRILE"
| 16> end
| 17>
| 18> * xyz 0 2
| 19> 6        4.419319000      0.377438000     -0.195481000
| 20> 8        5.376417000     -0.368469000     -0.732004000
| 21> 8        4.341672000      1.575648000     -0.200764000
| 22> 6        3.321153000     -0.501178000      0.462286000
| 23> 6        2.195472000     -0.761515000     -0.487227000
| 24> 6        0.807697000     -1.205645000     -0.138859000
| 25> 6       -0.244893000     -0.043964000     -0.165461000
| 26> 6       -1.739722000     -0.507513000     -0.127087000
| 27> 6       -2.728234000      0.624987000      0.312340000
| 28> 6       -4.221357000      0.361913000     -0.063888000
| 29> 9        3.856766000     -1.679762000      0.915627000
| 30> 9        2.855876000      0.154059000      1.561190000
| 31> 9        2.461898000     -0.633021000     -1.780713000
| 32> 9        0.399941000     -2.153039000     -1.027428000
| 33> 9        0.819893000     -1.745362000      1.103323000
| 34> 9       -0.001209000      0.758832000      0.894327000
| 35> 9       -0.050799000      0.667697000     -1.297855000
| 36> 9       -1.866817000     -1.536289000      0.738172000
| 37> 9       -2.085667000     -0.939223000     -1.359404000
| 38> 9       -2.363698000      1.791868000     -0.261967000
| 39> 9       -2.661326000      0.761707000      1.652012000
| 40> 9       -4.601875000     -0.857094000      0.332625000
| 41> 9       -4.985818000      1.270521000      0.550030000
| 42> 9       -4.409399000      0.469729000     -1.380752000
| 43> 1        6.033543000      0.219590000     -1.158456000
| 44> *
| 45>
| 46>                          ****END OF INPUT****

CARTESIAN COORDINATES (ANGSTROEM)
---------------------------------
  C      4.419319    0.377438   -0.195481
  O      5.376417   -0.368469   -0.732004
  O      4.341672    1.575648   -0.200764
  C      3.321153   -0.501178    0.462286
  C      2.195472   -0.761515   -0.487227
  C      0.807697   -1.205645   -0.138859
  C     -0.244893   -0.043964   -0.165461
  C     -1.739722   -0.507513   -0.127087
  C     -2.728234    0.624987    0.312340
  C     -4.221357    0.361913   -0.063888
  F      3.856766   -1.679762    0.915627
  F      2.855876    0.154059    1.561190
  F      2.461898   -0.633021   -1.780713
  F      0.399941   -2.153039   -1.027428
  F      0.819893   -1.745362    1.103323
  F     -0.001209    0.758832    0.894327
  F     -0.050799    0.667697   -1.297855
  F     -1.866817   -1.536289    0.738172
  F     -2.085667   -0.939223   -1.359404
  F     -2.363698    1.791868   -0.261967
  F     -2.661326    0.761707    1.652012
  F     -4.601875   -0.857094    0.332625
  F     -4.985818    1.270521    0.550030
  F     -4.409399    0.469729   -1.380752
  H      6.033543    0.219590   -1.158456

 Total Charge           Charge          ....    0
 Multiplicity           Mult            ....    2
 Number of Electrons    NEL             ....  191
 Basis Dimension        Dim             ....  750

ORBITAL ENERGIES
----------------
                 SPIN UP ORBITALS
  NO   OCC          E(Eh)            E(eV)
   0   1.0000     -24.674429      -671.4253
   1   1.0000     -24.662378      -671.0974
   2   1.0000     -24.661470      -671.0727
   3   1.0000     -24.661303      -671.0682
   4   1.0000     -24.661263      -671.0671
   5   1.0000     -24.661255      -671.0669
   6   1.0000     -24.660610      -671.0493
   7   1.0000     -24.660424      -671.0442
   8   1.0000     -24.660193      -671.0380
   9   1.0000     -24.659652      -671.0232
  10   1.0000     -24.655916      -670.9216
  11   1.0000     -24.653951      -670.8681
  12   1.0000     -24.642887      -670.5670
  13   1.0000     -24.638266      -670.4413
  14   1.0000     -19.132310      -520.6166
  15   1.0000     -19.078187      -519.1439
  16   1.0000     -10.397049      -282.9181
  17   1.0000     -10.346549      -281.5439
  18   1.0000     -10.345170      -281.5064
  19   1.0000     -10.343724      -281.4670
  20   1.0000     -10.342461      -281.4327
  21   1.0000     -10.329710      -281.0857
  22   1.0000     -10.279011      -279.7061
  23   1.0000     -10.265323      -279.3336
  24   1.0000      -1.323494       -36.0141
  25   1.0000      -1.300851       -35.3980
  26   1.0000      -1.285714       -34.9861
  27   1.0000      -1.278558       -34.7913
  28   1.0000      -1.275553       -34.7096
  29   1.0000      -1.266871       -34.4733
  30   1.0000      -1.261286       -34.3213
  31   1.0000      -1.239028       -33.7157
  32   1.0000      -1.233115       -33.5548
  33   1.0000      -1.232427       -33.5360
  34   1.0000      -1.226145       -33.3651
  35   1.0000      -1.222629       -33.2694
  36   1.0000      -1.218856       -33.1668
  37   1.0000      -1.203995       -32.7624
  38   1.0000      -1.117933       -30.4205
  39   1.0000      -1.033861       -28.1328
  40   1.0000      -0.834415       -22.7056
  41   1.0000      -0.818850       -22.2820
  42   1.0000      -0.787664       -21.4334
  43   1.0000      -0.754961       -20.5435
  44   1.0000      -0.711204       -19.3528
  45   1.0000      -0.673779       -18.3345
  46   1.0000      -0.657569       -17.8934
  47   1.0000      -0.634251       -17.2589
  48   1.0000      -0.624876       -17.0037
  49   1.0000      -0.620300       -16.8792
  50   1.0000      -0.611831       -16.6488
  51   1.0000      -0.603318       -16.4171
  52   1.0000      -0.600011       -16.3271
  53   1.0000      -0.598396       -16.2832
  54   1.0000      -0.587633       -15.9903
  55   1.0000      -0.580532       -15.7971
  56   1.0000      -0.578340       -15.7374
  57   1.0000      -0.573452       -15.6044
  58   1.0000      -0.567232       -15.4352
  59   1.0000      -0.560116       -15.2415
  60   1.0000      -0.551540       -15.0082
  61   1.0000      -0.541859       -14.7447
  62   1.0000      -0.506605       -13.7854
  63   1.0000      -0.496035       -13.4978
  64   1.0000      -0.488124       -13.2825
  65   1.0000      -0.483694       -13.1620
  66   1.0000      -0.478979       -13.0337
  67   1.0000      -0.474378       -12.9085
  68   1.0000      -0.471477       -12.8295
  69   1.0000      -0.470596       -12.8056
  70   1.0000      -0.464998       -12.6532
  71   1.0000      -0.459810       -12.5121
  72   1.0000      -0.457053       -12.4371
  73   1.0000      -0.455538       -12.3958
  74   1.0000      -0.450587       -12.2611
  75   1.0000      -0.446734       -12.1563
  76   1.0000      -0.440226       -11.9792
  77   1.0000      -0.436819       -11.8864
  78   1.0000      -0.435393       -11.8476
  79   1.0000      -0.432699       -11.7743
  80   1.0000      -0.430719       -11.7205
  81   1.0000      -0.426124       -11.5954
  82   1.0000      -0.424798       -11.5594
  83   1.0000      -0.421099       -11.4587
  84   1.0000      -0.420237       -11.4352
  85   1.0000      -0.415973       -11.3192
  86   1.0000      -0.414880       -11.2895
  87   1.0000      -0.413276       -11.2458
  88   1.0000      -0.408746       -11.1225
  89   1.0000      -0.404614       -11.0101
  90   1.0000      -0.384726       -10.4689
  91   1.0000      -0.367943       -10.0122
  92   1.0000      -0.339354        -9.2343
  93   1.0000      -0.335316        -9.1244
  94   1.0000      -0.296327        -8.0635
  95   1.0000      -0.258205        -7.0261
  96   0.0000      -0.060509        -1.6465
  97   0.0000      -0.010156        -0.2764
  98   0.0000      -0.007687        -0.2092
  99   0.0000       0.019834         0.5397
 100   0.0000       0.036491         0.9930

                 SPIN DOWN ORBITALS
  NO   OCC          E(Eh)            E(eV)
   0   1.0000     -24.669966      -671.3039
   1   1.0000     -24.662379      -671.0974
   2   1.0000     -24.661473      -671.0728
   3   1.0000     -24.661302      -671.0681
   4   1.0000     -24.661263      -671.0671
   5   1.0000     -24.661254      -671.0668
   6   1.0000     -24.660598      -671.0490
   7   1.0000     -24.660416      -671.0440
   8   1.0000     -24.660191      -671.0379
   9   1.0000     -24.659633      -671.0227
  10   1.0000     -24.655655      -670.9145
  11   1.0000     -24.653212      -670.8480
  12   1.0000     -24.642164      -670.5474
  13   1.0000     -24.636705      -670.3988
  14   1.0000     -19.132288      -520.6160
  15   1.0000     -19.078159      -519.1431
  16   1.0000     -10.397030      -282.9176
  17   1.0000     -10.346416      -281.5403
  18   1.0000     -10.345118      -281.5050
  19   1.0000     -10.344682      -281.4931
  20   1.0000     -10.341788      -281.4144
  21   1.0000     -10.330494      -281.1070
  22   1.0000     -10.278971      -279.7050
  23   1.0000     -10.249610      -278.9061
  24   1.0000      -1.323479       -36.0137
  25   1.0000      -1.300542       -35.3895
  26   1.0000      -1.284924       -34.9646
  27   1.0000      -1.278410       -34.7873
  28   1.0000      -1.273831       -34.6627
  29   1.0000      -1.262776       -34.3619
  30   1.0000      -1.256486       -34.1907
  31   1.0000      -1.238993       -33.7147
  32   1.0000      -1.233018       -33.5521
  33   1.0000      -1.232357       -33.5341
  34   1.0000      -1.225963       -33.3601
  35   1.0000      -1.222560       -33.2675
  36   1.0000      -1.217909       -33.1410
  37   1.0000      -1.201402       -32.6918
  38   1.0000      -1.117845       -30.4181
  39   1.0000      -1.033797       -28.1310
  40   1.0000      -0.826989       -22.5035
  41   1.0000      -0.810933       -22.0666
  42   1.0000      -0.784039       -21.3348
  43   1.0000      -0.753594       -20.5063
  44   1.0000      -0.706415       -19.2225
  45   1.0000      -0.671126       -18.2623
  46   1.0000      -0.656354       -17.8603
  47   1.0000      -0.631364       -17.1803
  48   1.0000      -0.623812       -16.9748
  49   1.0000      -0.619464       -16.8565
  50   1.0000      -0.611516       -16.6402
  51   1.0000      -0.601428       -16.3657
  52   1.0000      -0.598644       -16.2899
  53   1.0000      -0.596725       -16.2377
  54   1.0000      -0.586169       -15.9505
  55   1.0000      -0.577721       -15.7206
  56   1.0000      -0.577118       -15.7042
  57   1.0000      -0.572524       -15.5792
  58   1.0000      -0.562981       -15.3195
  59   1.0000      -0.559450       -15.2234
  60   1.0000      -0.550475       -14.9792
  61   1.0000      -0.540357       -14.7039
  62   1.0000      -0.495814       -13.4918
  63   1.0000      -0.488102       -13.2819
  64   1.0000      -0.484157       -13.1746
  65   1.0000      -0.480565       -13.0768
  66   1.0000      -0.476567       -12.9681
  67   1.0000      -0.472751       -12.8642
  68   1.0000      -0.471291       -12.8245
  69   1.0000      -0.469443       -12.7742
  70   1.0000      -0.463733       -12.6188
  71   1.0000      -0.459628       -12.5071
  72   1.0000      -0.456326       -12.4173
  73   1.0000      -0.454293       -12.3619
  74   1.0000      -0.449530       -12.2323
  75   1.0000      -0.445923       -12.1342
  76   1.0000      -0.439385       -11.9563
  77   1.0000      -0.435787       -11.8584
  78   1.0000      -0.433326       -11.7914
  79   1.0000      -0.431099       -11.7308
  80   1.0000      -0.428690       -11.6653
  81   1.0000      -0.425926       -11.5900
  82   1.0000      -0.424666       -11.5558
  83   1.0000      -0.420641       -11.4462
  84   1.0000      -0.419500       -11.4152
  85   1.0000      -0.415460       -11.3052
  86   1.0000      -0.413601       -11.2547
  87   1.0000      -0.412881       -11.2351
  88   1.0000      -0.407167       -11.0796
  89   1.0000      -0.403502       -10.9799
  90   1.0000      -0.382688       -10.4135
  91   1.0000      -0.366133        -9.9630
  92   1.0000      -0.339119        -9.2279
  93   1.0000      -0.333459        -9.0739
  94   1.0000      -0.295847        -8.0504
  95   0.0000      -0.135281        -3.6812
  96   0.0000      -0.058249        -1.5850
  97   0.0000      -0.007687        -0.2092
  98   0.0000      -0.003922        -0.1067
  99   0.0000       0.024785         0.6744

MULLIKEN ATOMIC CHARGES AND SPIN POPULATIONS
--------------------------------------------
   0 C :    0.227554   -0.005855
   1 O :   -0.342294   -0.000124
   2 O :   -0.291753    0.000837
   3 C :    0.409845   -0.004084
   4 C :    0.101231    0.851025
   5 C :    0.335546   -0.022883
   6 C :    0.275908    0.029262
   7 C :    0.272711    0.005662
   8 C :    0.296978    0.002198
   9 C :    0.408436    0.000718
  10 F :   -0.173008    0.028871
  11 F :   -0.166126    0.012172
  12 F :   -0.130519    0.084529
  13 F :   -0.156380    0.013616
  14 F :   -0.152511    0.003813
  15 F :   -0.153577   -0.000384
  16 F :   -0.153226   -0.000127
  17 F :   -0.149004   -0.000179
  18 F :   -0.149302    0.000155
  19 F :   -0.146811   -0.000024
  20 F :   -0.143915    0.000067
  21 F :   -0.135660   -0.000025
  22 F :   -0.132459    0.000231
  23 F :   -0.133039    0.000012
  24 H :    0.381373    0.000518
Sum of atomic charges         :    0.0000000

LOEWDIN ATOMIC CHARGES AND SPIN POPULATIONS
-------------------------------------------
   0 C :   -0.486580    0.001574
   1 O :    0.155376    0.000500
   2 O :    0.133500    0.000921
   3 C :   -0.462003    0.060140
   4 C :   -0.153223    0.660455
   5 C :   -0.478843    0.063797
   6 C :   -0.454681    0.023554
   7 C :   -0.459867    0.005734
   8 C :   -0.466115    0.001967
   9 C :   -0.668035    0.000542
  10 F :    0.178225    0.033427
  11 F :    0.199107    0.016377
  12 F :    0.262012    0.109182
  13 F :    0.209797    0.014650
  14 F :    0.221171    0.005199
  15 F :    0.225679    0.000481
  16 F :    0.225379    0.000757
  17 F :    0.226547   -0.000121
  18 F :    0.225634    0.000259
  19 F :    0.225224   -0.000060
  20 F :    0.226266    0.000090
  21 F :    0.226541   -0.000021
  22 F :    0.227042    0.000263
  23 F :    0.228500    0.000019
  24 H :    0.233345    0.000312

  Mayer bond orders larger than 0.100000
B(  0-C ,  1-O ) :   1.3114 B(  0-C ,  2-O ) :   2.0728 B(  0-C ,  3-C ) :   0.8899
B(  1-O , 24-H ) :   0.8204 B(  3-C ,  4-C ) :   1.0450 B(  3-C , 10-F ) :   1.0857
B(  3-C , 11-F ) :   1.0898 B(  4-C ,  5-C ) :   1.0589 B(  4-C , 12-F ) :   1.1322
B(  5-C ,  6-C ) :   0.9406 B(  5-C , 13-F ) :   1.0799 B(  5-C , 14-F ) :   1.1014
B(  6-C ,  7-C ) :   0.9381 B(  6-C , 15-F ) :   1.0943 B(  6-C , 16-F ) :   1.0912
B(  7-C ,  8-C ) :   0.9402 B(  7-C , 17-F ) :   1.0961 B(  7-C , 18-F ) :   1.1025
B(  8-C ,  9-C ) :   0.9700 B(  8-C , 19-F ) :   1.1005 B(  8-C , 20-F ) :   1.1116
B(  9-C , 21-F ) :   1.1591 B(  9-C , 22-F ) :   1.1626 B(  9-C , 23-F ) :   1.1709

Dispersion correction           -0.029671789
FINAL SINGLE POINT ENERGY     -1854.407546010459

DIPOLE MOMENT
-------------

Method             : SCF
Type of density    : Electron Density
Multiplicity       :   2
Irrep              :   0
Energy             : -1854.3778742217864419 Eh
Relativity type    :
Basis              : AO
                                X                 Y                 Z
Electronic contribution:    -14.692299064      -1.689004832       1.159280353
Nuclear contribution   :     15.785892131       1.494967859      -1.960019536
                        -----------------------------------------
Total Dipole Moment    :      1.093593067      -0.194036973      -0.800739183
                        -----------------------------------------
Magnitude (a.u.)       :      1.369225833
Magnitude (Debye)      :      3.480295483

VIBRATIONAL FREQUENCIES
-----------------------

Scaling factor for frequencies =  1.000000000  (already applied!)

     0:       0.00 cm**-1
     1:       0.00 cm**-1
     2:       0.00 cm**-1
     3:       0.00 cm**-1
     4:       0.00 cm**-1
     5:       0.00 cm**-1
     6:      12.76 cm**-1
     7:      26.31 cm**-1
     8:      31.34 cm**-1
     9:      41.27 cm**-1
    10:      41.65 cm**-1
    11:      46.76 cm**-1
    12:      60.71 cm**-1
    13:      75.37 cm**-1
    14:     100.36 cm**-1
    15:     118.02 cm**-1
    16:     149.85 cm**-1
    17:     158.29 cm**-1
    18:     179.19 cm**-1
    19:     189.45 cm**-1
    20:     200.74 cm**-1
    21:     217.28 cm**-1
    22:     234.69 cm**-1
    23:     239.04 cm**-1
    24:     242.58 cm**-1
    25:     269.37 cm**-1
    26:     276.38 cm**-1
    27:     302.66 cm**-1
    28:     312.93 cm**-1
    29:     339.69 cm**-1
    30:     343.57 cm**-1
    31:     355.08 cm**-1
    32:     364.02 cm**-1
    33:     368.58 cm**-1
    34:     398.66 cm**-1
    35:     413.48 cm**-1
    36:     461.78 cm**-1
    37:     492.09 cm**-1
    38:     511.86 cm**-1
    39:     525.07 cm**-1
    40:     540.41 cm**-1
    41:     556.02 cm**-1
    42:     561.34 cm**-1
    43:     586.22 cm**-1
    44:     602.19 cm**-1
    45:     625.13 cm**-1
    46:     641.93 cm**-1
    47:     658.77 cm**-1
    48:     687.92 cm**-1
    49:     710.63 cm**-1
    50:     749.63 cm**-1
    51:     761.46 cm**-1
    52:     863.75 cm**-1
    53:     978.43 cm**-1
    54:    1036.19 cm**-1
    55:    1076.96 cm**-1
    56:    1096.96 cm**-1
    57:    1104.98 cm**-1
    58:    1118.31 cm**-1
    59:    1128.12 cm**-1
    60:    1136.48 cm**-1
    61:    1145.89 cm**-1
    62:    1149.42 cm**-1
    63:    1154.61 cm**-1
    64:    1172.03 cm**-1
    65:    1176.03 cm**-1
    66:    1192.78 cm**-1
    67:    1228.72 cm**-1
    68:    1262.64 cm**-1
    69:    1308.49 cm**-1
    70:    1321.47 cm**-1
    71:    1356.39 cm**-1
    72:    1398.96 cm**-1
    73:    1808.10 cm**-1
    74:    3604.32 cm**-1

IR SPECTRUM
-----------

 Mode   freq       eps      Int      T**2         TX        TY        TZ
       cm**-1   L/(mol*cm) km/mol    a.u.
----------------------------------------------------------------------------
  6:     12.76   0.000122    0.61  0.002974  ( 0.001846  0.053871 -0.008279)
  7:     26.31   0.000040    0.20  0.000480  (-0.013105  0.000456 -0.017548)
  8:     31.34   0.000587    2.96  0.005842  ( 0.044234 -0.013725  0.060805)
  9:     41.27   0.000158    0.80  0.001191  (-0.020942 -0.004264 -0.027103)
 10:     41.65   0.000275    1.39  0.002058  (-0.019649 -0.028054 -0.029751)
 11:     46.76   0.000017    0.09  0.000114  (-0.005803  0.008766 -0.001738)
 12:     60.71   0.000003    0.02  0.000017  ( 0.002739 -0.001241  0.002905)
 13:     75.37   0.000031    0.16  0.000127  (-0.002204 -0.010917  0.001795)
 14:    100.36   0.000067    0.34  0.000209  (-0.010305 -0.008647  0.005332)
 15:    118.02   0.000169    0.86  0.000448  ( 0.016702  0.005057 -0.011972)
 16:    149.85   0.000131    0.66  0.000272  (-0.015698  0.000375 -0.005022)
 17:    158.29   0.000258    1.30  0.000509  ( 0.009246 -0.008914 -0.018549)
 18:    179.19   0.000962    4.86  0.001676  (-0.015747  0.004485 -0.037516)
 19:    189.45   0.001550    7.83  0.002552  ( 0.010326  0.013906 -0.047460)
 20:    200.74   0.000158    0.80  0.000245  (-0.006722  0.013273 -0.004864)
 21:    217.28   0.000134    0.68  0.000192  (-0.009232 -0.010165  0.001973)
 22:    234.69   0.000020    0.10  0.000027  (-0.004279  0.001877 -0.002197)
 23:    239.04   0.000118    0.60  0.000154  ( 0.010949  0.001956 -0.005517)
 24:    242.58   0.000533    2.69  0.000685  (-0.022479 -0.008511  0.010368)
 25:    269.37   0.000276    1.39  0.000320  ( 0.013622  0.008166  0.008202)
 26:    276.38   0.001514    7.65  0.001710  ( 0.035894 -0.019774 -0.005500)
 27:    302.66   0.000007    0.04  0.000008  (-0.001389  0.002361 -0.000195)
 28:    312.93   0.000076    0.38  0.000075  (-0.005950 -0.006296  0.000675)
 29:    339.69   0.000363    1.83  0.000333  (-0.002709 -0.010826 -0.014455)
 30:    343.57   0.000078    0.39  0.000071  (-0.007399 -0.001731 -0.003610)
 31:    355.08   0.000091    0.46  0.000080  ( 0.004291 -0.007818  0.000495)
 32:    364.02   0.000544    2.75  0.000467  ( 0.006936  0.018233 -0.009283)
 33:    368.58   0.000113    0.57  0.000096  ( 0.009584 -0.001603 -0.001239)
 34:    398.66   0.000854    4.32  0.000668  (-0.025407  0.002259 -0.004225)
 35:    413.48   0.001352    6.83  0.001020  (-0.031240 -0.006484 -0.001510)
 36:    461.78   0.002074   10.48  0.001402  (-0.024714 -0.007648  0.027066)
 37:    492.09   0.005242   26.49  0.003324  (-0.054869 -0.000125  0.017702)
 38:    511.86   0.007015   35.45  0.004277  ( 0.056445 -0.026590 -0.019588)
 39:    525.07   0.002031   10.27  0.001207  ( 0.018498  0.028797 -0.005982)
 40:    540.41   0.000205    1.04  0.000119  ( 0.003275 -0.009051  0.005097)
 41:    556.02   0.007222   36.50  0.004053  ( 0.052934  0.025044  0.024978)
 42:    561.34   0.002680   13.54  0.001490  (-0.017328  0.030468  0.016162)
 43:    586.22   0.007867   39.76  0.004188  ( 0.061599 -0.018466  0.007249)
 44:    602.19   0.002467   12.47  0.001278  (-0.003156 -0.002337 -0.035540)
 45:    625.13   0.036371  183.81  0.018157  ( 0.099397 -0.007112  0.090699)
 46:    641.93   0.042108  212.79  0.020470  ( 0.142129  0.006326 -0.015137)
 47:    658.77   0.002913   14.72  0.001380  (-0.027907  0.001986 -0.024433)
 48:    687.92   0.016153   81.63  0.007327  (-0.077511  0.033924  0.012986)
 49:    710.63   0.004185   21.15  0.001838  (-0.035303  0.020474  0.013127)
 50:    749.63   0.001245    6.29  0.000518  (-0.006339  0.010664 -0.019085)
 51:    761.46   0.010684   53.99  0.004378  (-0.011932  0.010069  0.064302)
 52:    863.75   0.003919   19.80  0.001416  ( 0.018652 -0.029729 -0.013572)
 53:    978.43   0.015541   78.54  0.004957  ( 0.060009  0.022198  0.029372)
 54:   1036.19   0.058450  295.38  0.017603  ( 0.065606 -0.114132  0.016519)
 55:   1076.96   0.019994  101.04  0.005793  (-0.035825  0.067151  0.000793)
 56:   1096.96   0.013076   66.08  0.003720  (-0.009436  0.057892  0.016714)
 57:   1104.98   0.023690  119.72  0.006690  (-0.056964  0.036198  0.046208)
 58:   1118.31   0.101366  512.26  0.028286  ( 0.060981  0.148213  0.050995)
 59:   1128.12   0.048767  246.45  0.013490  ( 0.034151 -0.037752 -0.104397)
 60:   1136.48   0.030541  154.34  0.008386  (-0.008876 -0.007150 -0.090865)
 61:   1145.89   0.102806  519.54  0.027998  ( 0.017128  0.080262 -0.145816)
 62:   1149.42   0.034394  173.81  0.009338  (-0.008986 -0.087782  0.039388)
 63:   1154.61   0.108017  545.88  0.029195  ( 0.001811 -0.041340 -0.165778)
 64:   1172.03   0.079814  403.35  0.021251  ( 0.026091 -0.095890  0.106656)
 65:   1176.03   0.038089  192.49  0.010107  (-0.075686  0.008776  0.065589)
 66:   1192.78   0.026203  132.42  0.006855  ( 0.024412  0.019764  0.076608)
 67:   1228.72   0.010987   55.52  0.002790  ( 0.039512 -0.032695 -0.012660)
 68:   1262.64   0.004979   25.16  0.001231  ( 0.018443 -0.023930  0.017827)
 69:   1308.49   0.022159  111.98  0.005285  ( 0.064234  0.033605  0.005430)
 70:   1321.47   0.022896  115.71  0.005407  ( 0.070063 -0.014842 -0.016667)
 71:   1356.39   0.008192   41.40  0.001885  ( 0.032238  0.012942  0.026035)
 72:   1398.96   0.015137   76.49  0.003377  (-0.041841  0.024540  0.031995)
 73:   1808.10   0.087591  442.65  0.015118  ( 0.027291 -0.118201 -0.020030)
 74:   3604.32   0.046726  236.13  0.004046  (-0.052904 -0.016755  0.031081)

--------------------------
THERMOCHEMISTRY AT 298.15K
--------------------------

Temperature         ...   298.15 K
Pressure            ...     1.00 atm
Total Mass          ...   395.07 AMU
Quasi RRHO          ...     True
Cut-Off Frequency   ...     1.00 cm^-1

Throughout the following assumptions are being made:
  (1) The electronic state is orbitally nondegenerate
      but the spin degeneracy is treated
  (2) There are no thermally accessible electronically excited states
  (3) Hindered rotations indicated by low frequency modes are not
      treated as such but are treated as vibrations and this may
      cause some error
  (4) All equations used are the standard statistical mechanics
      equations for an ideal gas
  (5) All vibrations are strictly harmonic

freq.      12.76  E(vib)   ...       0.57
freq.      26.31  E(vib)   ...       0.56
freq.      31.34  E(vib)   ...       0.55
freq.      41.27  E(vib)   ...       0.54
freq.      41.65  E(vib)   ...       0.53
freq.      46.76  E(vib)   ...       0.53
freq.      60.71  E(vib)   ...       0.51
freq.      75.37  E(vib)   ...       0.49
freq.     100.36  E(vib)   ...       0.46
freq.     118.02  E(vib)   ...       0.44
freq.     149.85  E(vib)   ...       0.40
freq.     158.29  E(vib)   ...       0.39
freq.     179.19  E(vib)   ...       0.37
freq.     189.45  E(vib)   ...       0.36
freq.     200.74  E(vib)   ...       0.35
freq.     217.28  E(vib)   ...       0.34
freq.     234.69  E(vib)   ...       0.32
freq.     239.04  E(vib)   ...       0.32
freq.     242.58  E(vib)   ...       0.31
freq.     269.37  E(vib)   ...       0.29
freq.     276.38  E(vib)   ...       0.28
freq.     302.66  E(vib)   ...       0.26
freq.     312.93  E(vib)   ...       0.25
freq.     339.69  E(vib)   ...       0.23
freq.     343.57  E(vib)   ...       0.23
freq.     355.08  E(vib)   ...       0.22
freq.     364.02  E(vib)   ...       0.22
freq.     368.58  E(vib)   ...       0.21
freq.     398.66  E(vib)   ...       0.19
freq.     413.48  E(vib)   ...       0.19
freq.     461.78  E(vib)   ...       0.16
freq.     492.09  E(vib)   ...       0.14
freq.     511.86  E(vib)   ...       0.14
freq.     525.07  E(vib)   ...       0.13
freq.     540.41  E(vib)   ...       0.12
freq.     556.02  E(vib)   ...       0.12
freq.     561.34  E(vib)   ...       0.11
freq.     586.22  E(vib)   ...       0.11
freq.     602.19  E(vib)   ...       0.10
freq.     625.13  E(vib)   ...       0.09
freq.     641.93  E(vib)   ...       0.09
freq.     658.77  E(vib)   ...       0.08
freq.     687.92  E(vib)   ...       0.07
freq.     710.63  E(vib)   ...       0.07
freq.     749.63  E(vib)   ...       0.06
freq.     761.46  E(vib)   ...       0.06
freq.     863.75  E(vib)   ...       0.04
freq.     978.43  E(vib)   ...       0.03
freq.    1036.19  E(vib)   ...       0.02
freq.    1076.96  E(vib)   ...       0.02
freq.    1096.96  E(vib)   ...       0.02
freq.    1104.98  E(vib)   ...       0.02
freq.    1118.31  E(vib)   ...       0.01
freq.    1128.12  E(vib)   ...       0.01
freq.    1136.48  E(vib)   ...       0.01
freq.    1145.89  E(vib)   ...       0.01
freq.    1149.42  E(vib)   ...       0.01
freq.    1154.61  E(vib)   ...       0.01
freq.    1172.03  E(vib)   ...       0.01
freq.    1176.03  E(vib)   ...       0.01
freq.    1192.78  E(vib)   ...       0.01
freq.    1228.72  E(vib)   ...       0.01
freq.    1262.64  E(vib)   ...       0.01
freq.    1308.49  E(vib)   ...       0.01
freq.    1321.47  E(vib)   ...       0.01
freq.    1356.39  E(vib)   ...       0.01
freq.    1398.96  E(vib)   ...       0.00
freq.    1808.10  E(vib)   ...       0.00
freq.    3604.32  E(vib)   ...       0.00

------------
INNER ENERGY
------------

The inner energy is: U= E(el) + E(ZPE) + E(vib) + E(rot) + E(trans)
    E(el)   - is the total energy from the electronic structure calculation
              = E(kin-el) + E(nuc-el) + E(el-el) + E(nuc-nuc)
    E(ZPE)  - the the zero temperature vibrational energy from the frequency calculation
    E(vib)  - the the finite temperature correction to E(ZPE) due to population
              of excited vibrational states
    E(rot)  - is the rotational thermal energy
    E(trans)- is the translational thermal energy

Summary of contributions to the inner energy U:
Electronic energy                ...  -1854.40754601 Eh
Zero point energy                ...      0.10389036 Eh      65.19 kcal/mol
Thermal vibrational correction   ...      0.02050490 Eh      12.87 kcal/mol
Thermal rotational correction    ...      0.00141627 Eh       0.89 kcal/mol
Thermal translational correction ...      0.00141627 Eh       0.89 kcal/mol
-----------------------------------------------------------------------
Total thermal energy                  -1854.28031821 Eh

Summary of corrections to the electronic energy:
(perhaps to be used in another calculation)
Total thermal correction                  0.02333744 Eh      14.64 kcal/mol
Non-thermal (ZPE) correction              0.10389036 Eh      65.19 kcal/mol
-----------------------------------------------------------------------
Total correction                          0.12722780 Eh      79.84 kcal/mol

--------
ENTHALPY
--------

The enthalpy is H = U + kB*T
                kB is Boltzmann's constant
Total thermal energy              ...  -1854.28031821 Eh
Thermal Enthalpy correction       ...      0.00094421 Eh       0.59 kcal/mol
-----------------------------------------------------------------------
Total Enthalpy                    ...  -1854.27937400 Eh

Note: Only C1 symmetry has been detected, increase convergence thresholds
      if your molecule has a higher symmetry. Symmetry factor of 1.0 is
      used for the rotational entropy correction.

Note: Rotational entropy computed according to Herzberg
Infrared and Raman Spectra, Chapter V,1, Van Nostrand Reinhold, 1945
Point Group:  C1, Symmetry Number:   1
Rotational constants in cm-1:     0.020422     0.004047     0.003969

Vibrational entropy computed according to the QRRHO of S. Grimme
Chem.Eur.J. 2012 18 9955 using a reference frequency of 100.0 cm-1

-------
ENTROPY
-------

The entropy contributions are T*S = T*(S(el)+S(vib)+S(rot)+S(trans))
     S(el)   - electronic entropy
     S(vib)  - vibrational entropy
     S(rot)  - rotational entropy
     S(trans)- translational entropy
The entropies will be listed as multiplied by the temperature to get
units of energy

Electronic entropy                ...      0.00065446 Eh      0.41 kcal/mol
Vibrational entropy               ...      0.03744130 Eh     23.49 kcal/mol

                             ****ORCA TERMINATED NORMALLY****
TOTAL RUN TIME: 0 days 0 hours 23 minutes 57 seconds 551 msec
