                         Program Version 6.0.1  -  RELEASE   -
|  1> !B3LYP def2-TZVP opt d3 TightSCF SlowConv defgrid2
|  2>
|  3> %pal
|  4> nprocs 20
|  5> end
|  6>
|  7> %scf
|  8> MaxIter 1500
|  9> end
| 10>
| 11> %maxcore 8000
| 12>
| 13> !CPCM
| 14> %cpcm smd true
| 15> SMDsolvent "ACETONITRILE"
| 16> end
| 17>
| 18> * xyz 0 2
| 19> 6        4.790427000     -0.033865800     -0.529943200
| 20> 8        5.449345000     -1.206924000     -0.894594600
| 21> 8        4.978223000      1.323071000     -0.737377200
| 22> 6        3.506687600     -0.338741600      0.376153800
| 23> 6        2.222300000      0.400524800     -0.110681600
| 24> 6        0.900506800     -0.386389800      0.175703000
| 25> 6       -0.395261200      0.487294000      0.065549000
| 26> 6       -1.705693600     -0.364773800     -0.068373600
| 27> 6       -3.005136200      0.445344800      0.258164000
| 28> 6       -4.319880200     -0.214526000     -0.270540800
| 29> 9        3.211587400     -1.692050400      0.412735200
| 30> 9        3.741061800      0.055285800      1.689948800
| 31> 9        2.125696800      1.616867800      0.483236600
| 32> 9        2.314152400      0.589704000     -1.455769200
| 33> 9        0.794028800     -1.413561400     -0.700839000
| 34> 9        0.958350600     -0.884509000      1.435093400
| 35> 9       -0.498373400      1.260265600      1.173340200
| 36> 9       -0.299075000      1.289512600     -1.020910800
| 37> 9       -1.641790400     -1.418189000      0.779523800
| 38> 9       -1.792381400     -0.831391600     -1.336863600
| 39> 9       -3.119771000      0.573779800      1.598579800
| 40> 9       -4.383115600     -1.504377600      0.089127600
| 41> 9       -5.365669800      0.430528600      0.260394200
| 42> 9       -4.396020400     -0.128550600     -1.602941800
| 43> 1        5.903122371     -2.014774547     -1.145719253
| 44> *
| 45>
| 46>                          ****END OF INPUT****
 Total Charge           Charge          ....    0
 Multiplicity           Mult            ....    2
 Number of Electrons    NEL             ....  191
Dispersion correction           -0.042437344
FINAL SINGLE POINT ENERGY     -1853.617767671479
Dispersion correction             ... done (  0.0 sec)
Dispersion correction           -0.042653797
FINAL SINGLE POINT ENERGY     -1853.670420620941
Dispersion correction             ... done (  0.0 sec)
Dispersion correction           -0.042781942
FINAL SINGLE POINT ENERGY     -1853.681672966566
Dispersion correction             ... done (  0.0 sec)
FINAL SINGLE POINT ENERGY     -1853.688195766682
FINAL SINGLE POINT ENERGY     -1853.688755485227
FINAL SINGLE POINT ENERGY     -1853.691584540474
FINAL SINGLE POINT ENERGY     -1853.693039506719
FINAL SINGLE POINT ENERGY     -1853.696883669146
FINAL SINGLE POINT ENERGY     -1853.703183502623
FINAL SINGLE POINT ENERGY     -1853.706306203828
FINAL SINGLE POINT ENERGY     -1853.734442163282
FINAL SINGLE POINT ENERGY     -1853.734449025307
FINAL SINGLE POINT ENERGY     -1853.734457320751
FINAL SINGLE POINT ENERGY     -1853.734462205881
FINAL SINGLE POINT ENERGY     -1853.734467215181
FINAL SINGLE POINT ENERGY     -1853.734470565004
FINAL SINGLE POINT ENERGY     -1853.734473521203
Dispersion correction             ... done (  0.1 sec)
Dispersion correction           -0.042900273
FINAL SINGLE POINT ENERGY     -1853.734474987988
Dispersion correction             ... done (  0.0 sec)
Dispersion correction           -0.042897611
FINAL SINGLE POINT ENERGY     -1853.734476461708
Dispersion correction             ... done (  0.1 sec)
                    ***********************HURRAY********************

CARTESIAN COORDINATES (ANGSTROEM)
---------------------------------
  C      4.673202    0.153349   -0.467994
  O      5.018104   -0.690531   -1.427292
  O      5.154093    1.224364   -0.234880
  C      3.494965   -0.408289    0.377198
  C      2.118286    0.064288   -0.190508
  C      0.875235   -0.660342    0.432316
  C     -0.469501    0.111206    0.200960
  C     -1.763564   -0.757000    0.382756
  C     -3.009906    0.068036    0.477768
  C     -4.043784    0.248400   -0.592897
  F      3.515513   -1.759882    0.400586
  F      3.628343    0.045382    1.638633
  F      2.015063    1.392820    0.022287
  F      2.113357   -0.159508   -1.522112
  F      0.781748   -1.887480   -0.118002
  F      1.060273   -0.799424    1.759489
  F     -0.528489    1.133461    1.079894
  F     -0.488782    0.617244   -1.049969
  F     -1.619440   -1.485258    1.520604
  F     -1.865748   -1.601872   -0.667564
  F     -3.293406    0.572949    1.660695
  F     -4.907781   -0.787605   -0.653225
  F     -4.761592    1.352932   -0.353448
  F     -3.472862    0.358962   -1.801486
  H      5.749994   -0.306648   -1.950814

 Multiplicity           Mult            ....    2
 Number of Electrons    NEL             ....  191
 Basis Dimension        Dim             ....  750

ORBITAL ENERGIES
----------------
                 SPIN UP ORBITALS
  NO   OCC          E(Eh)            E(eV)
   0   1.0000     -24.758570      -673.7149
   1   1.0000     -24.744158      -673.3228
   2   1.0000     -24.743601      -673.3076
   3   1.0000     -24.743321      -673.3000
   4   1.0000     -24.743309      -673.2997
   5   1.0000     -24.743108      -673.2942
   6   1.0000     -24.742770      -673.2850
   7   1.0000     -24.740440      -673.2216
   8   1.0000     -24.738341      -673.1645
   9   1.0000     -24.738120      -673.1585
  10   1.0000     -24.737860      -673.1514
  11   1.0000     -24.734950      -673.0722
  12   1.0000     -24.733197      -673.0245
  13   1.0000     -24.733148      -673.0232
  14   1.0000     -19.207568      -522.6645
  15   1.0000     -19.154536      -521.2214
  16   1.0000     -10.459145      -284.6078
  17   1.0000     -10.408897      -283.2405
  18   1.0000     -10.407961      -283.2150
  19   1.0000     -10.405852      -283.1576
  20   1.0000     -10.405589      -283.1505
  21   1.0000     -10.396611      -282.9062
  22   1.0000     -10.346630      -281.5461
  23   1.0000     -10.328718      -281.0587
  24   1.0000      -1.341926       -36.5157
  25   1.0000      -1.333706       -36.2920
  26   1.0000      -1.319464       -35.9044
  27   1.0000      -1.308516       -35.6065
  28   1.0000      -1.305889       -35.5351
  29   1.0000      -1.301473       -35.4149
  30   1.0000      -1.296822       -35.2883
  31   1.0000      -1.264999       -34.4224
  32   1.0000      -1.257320       -34.2134
  33   1.0000      -1.254394       -34.1338
  34   1.0000      -1.250794       -34.0358
  35   1.0000      -1.248552       -33.9748
  36   1.0000      -1.247903       -33.9572
  37   1.0000      -1.244291       -33.8589
  38   1.0000      -1.147008       -31.2117
  39   1.0000      -1.062824       -28.9209
  40   1.0000      -0.857059       -23.3218
  41   1.0000      -0.840970       -22.8840
  42   1.0000      -0.812573       -22.1112
  43   1.0000      -0.777380       -21.1536
  44   1.0000      -0.739121       -20.1125
  45   1.0000      -0.699185       -19.0258
  46   1.0000      -0.679448       -18.4887
  47   1.0000      -0.669222       -18.2105
  48   1.0000      -0.647126       -17.6092
  49   1.0000      -0.642959       -17.4958
  50   1.0000      -0.637868       -17.3573
  51   1.0000      -0.631330       -17.1794
  52   1.0000      -0.627169       -17.0661
  53   1.0000      -0.623398       -16.9635
  54   1.0000      -0.614771       -16.7288
  55   1.0000      -0.612933       -16.6788
  56   1.0000      -0.610211       -16.6047
  57   1.0000      -0.597819       -16.2675
  58   1.0000      -0.594827       -16.1861
  59   1.0000      -0.587660       -15.9910
  60   1.0000      -0.581823       -15.8322
  61   1.0000      -0.574293       -15.6273
  62   1.0000      -0.538261       -14.6468
  63   1.0000      -0.521100       -14.1799
  64   1.0000      -0.512813       -13.9543
  65   1.0000      -0.512536       -13.9468
  66   1.0000      -0.505860       -13.7652
  67   1.0000      -0.503325       -13.6962
  68   1.0000      -0.498136       -13.5550
  69   1.0000      -0.495488       -13.4829
  70   1.0000      -0.491871       -13.3845
  71   1.0000      -0.489344       -13.3157
  72   1.0000      -0.487680       -13.2704
  73   1.0000      -0.485503       -13.2112
  74   1.0000      -0.478350       -13.0166
  75   1.0000      -0.475559       -12.9406
  76   1.0000      -0.472519       -12.8579
  77   1.0000      -0.467359       -12.7175
  78   1.0000      -0.466301       -12.6887
  79   1.0000      -0.461639       -12.5618
  80   1.0000      -0.456626       -12.4254
  81   1.0000      -0.455577       -12.3969
  82   1.0000      -0.453644       -12.3443
  83   1.0000      -0.449551       -12.2329
  84   1.0000      -0.446354       -12.1459
  85   1.0000      -0.445509       -12.1229
  86   1.0000      -0.442674       -12.0458
  87   1.0000      -0.437642       -11.9089
  88   1.0000      -0.436058       -11.8658
  89   1.0000      -0.430088       -11.7033
  90   1.0000      -0.417688       -11.3659
  91   1.0000      -0.393024       -10.6947
  92   1.0000      -0.361552        -9.8383
  93   1.0000      -0.358112        -9.7447
  94   1.0000      -0.318496        -8.6667
  95   1.0000      -0.275035        -7.4841
  96   0.0000      -0.052445        -1.4271
  97   0.0000      -0.000455        -0.0124
  98   0.0000       0.013364         0.3637
  99   0.0000       0.031667         0.8617
 100   0.0000       0.037615         1.0236

                 SPIN DOWN ORBITALS
  NO   OCC          E(Eh)            E(eV)
   0   1.0000     -24.753920      -673.5884
   1   1.0000     -24.744125      -673.3219
   2   1.0000     -24.743602      -673.3076
   3   1.0000     -24.743322      -673.3000
   4   1.0000     -24.743301      -673.2994
   5   1.0000     -24.743061      -673.2929
   6   1.0000     -24.742767      -673.2849
   7   1.0000     -24.740107      -673.2125
   8   1.0000     -24.737827      -673.1505
   9   1.0000     -24.737820      -673.1503
  10   1.0000     -24.737075      -673.1300
  11   1.0000     -24.734950      -673.0722
  12   1.0000     -24.733147      -673.0231
  13   1.0000     -24.731823      -672.9871
  14   1.0000     -19.207568      -522.6645
  15   1.0000     -19.154532      -521.2213
  16   1.0000     -10.459856      -284.6271
  17   1.0000     -10.408824      -283.2385
  18   1.0000     -10.408794      -283.2377
  19   1.0000     -10.405549      -283.1494
  20   1.0000     -10.405209      -283.1401
  21   1.0000     -10.396597      -282.9058
  22   1.0000     -10.346626      -281.5460
  23   1.0000     -10.314238      -280.6647
  24   1.0000      -1.340249       -36.4700
  25   1.0000      -1.333492       -36.2862
  26   1.0000      -1.318867       -35.8882
  27   1.0000      -1.308109       -35.5955
  28   1.0000      -1.304501       -35.4973
  29   1.0000      -1.301322       -35.4108
  30   1.0000      -1.288445       -35.0604
  31   1.0000      -1.264842       -34.4181
  32   1.0000      -1.256989       -34.2044
  33   1.0000      -1.253461       -34.1084
  34   1.0000      -1.250625       -34.0312
  35   1.0000      -1.246921       -33.9305
  36   1.0000      -1.246065       -33.9071
  37   1.0000      -1.244287       -33.8588
  38   1.0000      -1.147003       -31.2115
  39   1.0000      -1.062818       -28.9208
  40   1.0000      -0.849453       -23.1148
  41   1.0000      -0.833668       -22.6853
  42   1.0000      -0.806959       -21.9585
  43   1.0000      -0.774328       -21.0705
  44   1.0000      -0.737343       -20.0641
  45   1.0000      -0.696100       -18.9418
  46   1.0000      -0.675766       -18.3885
  47   1.0000      -0.669002       -18.2045
  48   1.0000      -0.645435       -17.5632
  49   1.0000      -0.641414       -17.4538
  50   1.0000      -0.636016       -17.3069
  51   1.0000      -0.629578       -17.1317
  52   1.0000      -0.626079       -17.0365
  53   1.0000      -0.618451       -16.8289
  54   1.0000      -0.614325       -16.7166
  55   1.0000      -0.611539       -16.6408
  56   1.0000      -0.609476       -16.5847
  57   1.0000      -0.597129       -16.2487
  58   1.0000      -0.593323       -16.1451
  59   1.0000      -0.586402       -15.9568
  60   1.0000      -0.580861       -15.8060
  61   1.0000      -0.574041       -15.6205
  62   1.0000      -0.521100       -14.1798
  63   1.0000      -0.513159       -13.9638
  64   1.0000      -0.512647       -13.9498
  65   1.0000      -0.508138       -13.8271
  66   1.0000      -0.504241       -13.7211
  67   1.0000      -0.502246       -13.6668
  68   1.0000      -0.495974       -13.4961
  69   1.0000      -0.493560       -13.4304
  70   1.0000      -0.491199       -13.3662
  71   1.0000      -0.488347       -13.2886
  72   1.0000      -0.485795       -13.2192
  73   1.0000      -0.484235       -13.1767
  74   1.0000      -0.477166       -12.9844
  75   1.0000      -0.475248       -12.9322
  76   1.0000      -0.471082       -12.8188
  77   1.0000      -0.466516       -12.6946
  78   1.0000      -0.463537       -12.6135
  79   1.0000      -0.461094       -12.5470
  80   1.0000      -0.455329       -12.3901
  81   1.0000      -0.453928       -12.3520
  82   1.0000      -0.452734       -12.3195
  83   1.0000      -0.449151       -12.2220
  84   1.0000      -0.445677       -12.1275
  85   1.0000      -0.444956       -12.1079
  86   1.0000      -0.442446       -12.0396
  87   1.0000      -0.436828       -11.8867
  88   1.0000      -0.434880       -11.8337
  89   1.0000      -0.428330       -11.6555
  90   1.0000      -0.414971       -11.2919
  91   1.0000      -0.390911       -10.6372
  92   1.0000      -0.361266        -9.8305
  93   1.0000      -0.356447        -9.6994
  94   1.0000      -0.318290        -8.6611
  95   0.0000      -0.129852        -3.5335
  96   0.0000      -0.051726        -1.4075
  97   0.0000       0.001452         0.0395
  98   0.0000       0.017564         0.4779
  99   0.0000       0.034380         0.9355

MULLIKEN ATOMIC CHARGES AND SPIN POPULATIONS
--------------------------------------------
   0 C :    0.227475    0.000167
   1 O :   -0.347662    0.000012
   2 O :   -0.284604    0.000147
   3 C :    0.412377    0.000385
   4 C :    0.309814    0.002010
   5 C :    0.323876    0.004655
   6 C :    0.319046    0.030791
   7 C :    0.383889   -0.012005
   8 C :    0.138991    0.829681
   9 C :    0.491158   -0.008816
  10 F :   -0.177063    0.000005
  11 F :   -0.172140    0.000034
  12 F :   -0.171835    0.000028
  13 F :   -0.172243    0.000070
  14 F :   -0.169308   -0.000044
  15 F :   -0.168119    0.000211
  16 F :   -0.172185    0.000680
  17 F :   -0.173390    0.000498
  18 F :   -0.174590    0.014784
  19 F :   -0.171351    0.006046
  20 F :   -0.138103    0.090020
  21 F :   -0.169121    0.025649
  22 F :   -0.161528    0.005563
  23 F :   -0.164171    0.009410
  24 H :    0.380787    0.000021
Sum of atomic charges         :   -0.0000000

LOEWDIN ATOMIC CHARGES AND SPIN POPULATIONS
-------------------------------------------
   0 C :   -0.488695    0.000148
   1 O :    0.154949    0.000021
   2 O :    0.136011    0.000124
   3 C :   -0.449202    0.000533
   4 C :   -0.452287    0.001649
   5 C :   -0.455148    0.004977
   6 C :   -0.449777    0.023023
   7 C :   -0.477247    0.063902
   8 C :   -0.166173    0.659097
   9 C :   -0.666602    0.058592
  10 F :    0.208868   -0.000006
  11 F :    0.215725    0.000036
  12 F :    0.223518   -0.000031
  13 F :    0.221372    0.000090
  14 F :    0.223047   -0.000037
  15 F :    0.224584    0.000276
  16 F :    0.222686    0.001312
  17 F :    0.222559    0.001002
  18 F :    0.208447    0.015612
  19 F :    0.218513    0.006692
  20 F :    0.268325    0.114989
  21 F :    0.194797    0.029640
  22 F :    0.216611    0.006751
  23 F :    0.212265    0.011598
  24 H :    0.232854    0.000010

  Mayer bond orders larger than 0.100000
B(  0-C ,  1-O ) :   1.3085 B(  0-C ,  2-O ) :   2.0855 B(  0-C ,  3-C ) :   0.8998
B(  1-O , 24-H ) :   0.8216 B(  3-C ,  4-C ) :   0.9418 B(  3-C , 10-F ) :   1.0882
B(  3-C , 11-F ) :   1.1074 B(  4-C ,  5-C ) :   0.9301 B(  4-C , 12-F ) :   1.0790
B(  4-C , 13-F ) :   1.0759 B(  5-C ,  6-C ) :   0.9294 B(  5-C , 14-F ) :   1.0820
B(  5-C , 15-F ) :   1.0850 B(  6-C ,  7-C ) :   0.9307 B(  6-C , 16-F ) :   1.0757
B(  6-C , 17-F ) :   1.0806 B(  7-C ,  8-C ) :   1.0042 B(  7-C , 18-F ) :   1.0718
B(  7-C , 19-F ) :   1.0915 B(  8-C ,  9-C ) :   1.0454 B(  8-C , 20-F ) :   1.1345
B(  9-C , 21-F ) :   1.1315 B(  9-C , 22-F ) :   1.1426 B(  9-C , 23-F ) :   1.1337

Dispersion correction           -0.042896159
FINAL SINGLE POINT ENERGY     -1853.734477492014

DIPOLE MOMENT
-------------

Method             : SCF
Type of density    : Electron Density
Multiplicity       :   2
Irrep              :   0
Energy             : -1853.6915813325383624 Eh
Relativity type    :
Basis              : AO
                                X                 Y                 Z
Electronic contribution:    -13.474535351      -0.864144134       2.466311029
Nuclear contribution   :     14.082986450       0.589988660      -3.165812224
                        -----------------------------------------
Total Dipole Moment    :      0.608451099      -0.274155474      -0.699501194
                        -----------------------------------------
Magnitude (a.u.)       :      0.966786369
Magnitude (Debye)      :      2.457375660

Rotational constants in cm-1:             0.020622             0.004034             0.003965
Rotational constants in MHz :           618.228166           120.941027           118.865919

                             ****ORCA TERMINATED NORMALLY****
TOTAL RUN TIME: 0 days 1 hours 12 minutes 9 seconds 284 msec
