                         Program Version 6.0.1  -  RELEASE   -
|  1> !B3LYP def2-TZVP freq d3 TightSCF SlowConv defgrid2
|  2>
|  3> %pal
|  4> nprocs 20
|  5> end
|  6>
|  7> %scf
|  8> MaxIter 1500
|  9> end
| 10>
| 11> %maxcore 8000
| 12>
| 13> !CPCM
| 14> %cpcm smd true
| 15> SMDsolvent "ACETONITRILE"
| 16> end
| 17>
| 18> * xyz -1 2
| 19> 6        4.697788000      0.326697000     -0.628200000
| 20> 8        5.287207000     -0.503096000     -1.331911000
| 21> 8        4.856071000      1.548850000     -0.480136000
| 22> 6        3.516523000     -0.253702000      0.253267000
| 23> 6        2.122990000      0.263390000     -0.206407000
| 24> 6        0.901757000     -0.564902000      0.319881000
| 25> 6       -0.472667000      0.177826000      0.195150000
| 26> 6       -1.732873000     -0.749526000      0.306521000
| 27> 6       -3.008018000      0.011202000      0.508100000
| 28> 6       -4.104226000      0.180546000     -0.502232000
| 29> 9        3.475715000     -1.618497000      0.221586000
| 30> 9        3.686800000      0.095648000      1.565588000
| 31> 9        1.959184000      1.546476000      0.189463000
| 32> 9        2.086134000      0.231802000     -1.562486000
| 33> 9        0.827710000     -1.722047000     -0.373395000
| 34> 9        1.097173000     -0.858206000      1.623674000
| 35> 9       -0.559022000      1.100900000      1.177518000
| 36> 9       -0.538903000      0.810791000     -0.995212000
| 37> 9       -1.541986000     -1.588183000      1.359326000
| 38> 9       -1.831791000     -1.482621000     -0.826620000
| 39> 9       -3.275372000      0.393619000      1.740341000
| 40> 9       -4.800204000     -0.958247000     -0.708947000
| 41> 9       -4.970577000      1.109880000     -0.083048000
| 42> 9       -3.609214000      0.555727000     -1.693107000
| 43> *
| 44>
| 45>                          ****END OF INPUT****

CARTESIAN COORDINATES (ANGSTROEM)
---------------------------------
  C      4.697788    0.326697   -0.628200
  O      5.287207   -0.503096   -1.331911
  O      4.856071    1.548850   -0.480136
  C      3.516523   -0.253702    0.253267
  C      2.122990    0.263390   -0.206407
  C      0.901757   -0.564902    0.319881
  C     -0.472667    0.177826    0.195150
  C     -1.732873   -0.749526    0.306521
  C     -3.008018    0.011202    0.508100
  C     -4.104226    0.180546   -0.502232
  F      3.475715   -1.618497    0.221586
  F      3.686800    0.095648    1.565588
  F      1.959184    1.546476    0.189463
  F      2.086134    0.231802   -1.562486
  F      0.827710   -1.722047   -0.373395
  F      1.097173   -0.858206    1.623674
  F     -0.559022    1.100900    1.177518
  F     -0.538903    0.810791   -0.995212
  F     -1.541986   -1.588183    1.359326
  F     -1.831791   -1.482621   -0.826620
  F     -3.275372    0.393619    1.740341
  F     -4.800204   -0.958247   -0.708947
  F     -4.970577    1.109880   -0.083048
  F     -3.609214    0.555727   -1.693107

 Total Charge           Charge          ....   -1
 Multiplicity           Mult            ....    2
 Number of Electrons    NEL             ....  191
 Basis Dimension        Dim             ....  744

ORBITAL ENERGIES
----------------
                 SPIN UP ORBITALS
  NO   OCC          E(Eh)            E(eV)
   0   1.0000     -24.755707      -673.6370
   1   1.0000     -24.737942      -673.1536
   2   1.0000     -24.737032      -673.1289
   3   1.0000     -24.736952      -673.1267
   4   1.0000     -24.736888      -673.1249
   5   1.0000     -24.735316      -673.0822
   6   1.0000     -24.733922      -673.0442
   7   1.0000     -24.732881      -673.0159
   8   1.0000     -24.732512      -673.0059
   9   1.0000     -24.731183      -672.9697
  10   1.0000     -24.722788      -672.7413
  11   1.0000     -24.722651      -672.7375
  12   1.0000     -24.698010      -672.0670
  13   1.0000     -24.697873      -672.0633
  14   1.0000     -19.061350      -518.6857
  15   1.0000     -19.059564      -518.6371
  16   1.0000     -10.456896      -284.5466
  17   1.0000     -10.403337      -283.0892
  18   1.0000     -10.398729      -282.9638
  19   1.0000     -10.395577      -282.8780
  20   1.0000     -10.381022      -282.4820
  21   1.0000     -10.343278      -281.4549
  22   1.0000     -10.325761      -280.9782
  23   1.0000     -10.254247      -279.0322
  24   1.0000      -1.339597       -36.4523
  25   1.0000      -1.323287       -36.0085
  26   1.0000      -1.306543       -35.5528
  27   1.0000      -1.299348       -35.3570
  28   1.0000      -1.293761       -35.2050
  29   1.0000      -1.290153       -35.1069
  30   1.0000      -1.262294       -34.3488
  31   1.0000      -1.255908       -34.1750
  32   1.0000      -1.252205       -34.0742
  33   1.0000      -1.246265       -33.9126
  34   1.0000      -1.245560       -33.8934
  35   1.0000      -1.242364       -33.8065
  36   1.0000      -1.232796       -33.5461
  37   1.0000      -1.204568       -32.7780
  38   1.0000      -1.024634       -27.8817
  39   1.0000      -0.942096       -25.6357
  40   1.0000      -0.851881       -23.1809
  41   1.0000      -0.825723       -22.4691
  42   1.0000      -0.791957       -21.5502
  43   1.0000      -0.755266       -20.5518
  44   1.0000      -0.713496       -19.4152
  45   1.0000      -0.678246       -18.4560
  46   1.0000      -0.668653       -18.1950
  47   1.0000      -0.638946       -17.3866
  48   1.0000      -0.633972       -17.2512
  49   1.0000      -0.632810       -17.2196
  50   1.0000      -0.622840       -16.9483
  51   1.0000      -0.619155       -16.8481
  52   1.0000      -0.617599       -16.8057
  53   1.0000      -0.603322       -16.4172
  54   1.0000      -0.599915       -16.3245
  55   1.0000      -0.594829       -16.1861
  56   1.0000      -0.583599       -15.8805
  57   1.0000      -0.579619       -15.7722
  58   1.0000      -0.574089       -15.6218
  59   1.0000      -0.564325       -15.3561
  60   1.0000      -0.549882       -14.9631
  61   1.0000      -0.534582       -14.5467
  62   1.0000      -0.504503       -13.7282
  63   1.0000      -0.502557       -13.6753
  64   1.0000      -0.499367       -13.5885
  65   1.0000      -0.494295       -13.4504
  66   1.0000      -0.490795       -13.3552
  67   1.0000      -0.487702       -13.2710
  68   1.0000      -0.483555       -13.1582
  69   1.0000      -0.481161       -13.0930
  70   1.0000      -0.473931       -12.8963
  71   1.0000      -0.469301       -12.7703
  72   1.0000      -0.465239       -12.6598
  73   1.0000      -0.463108       -12.6018
  74   1.0000      -0.458791       -12.4843
  75   1.0000      -0.454733       -12.3739
  76   1.0000      -0.454057       -12.3555
  77   1.0000      -0.450145       -12.2491
  78   1.0000      -0.445697       -12.1280
  79   1.0000      -0.441389       -12.0108
  80   1.0000      -0.438125       -11.9220
  81   1.0000      -0.434594       -11.8259
  82   1.0000      -0.433936       -11.8080
  83   1.0000      -0.432140       -11.7591
  84   1.0000      -0.425295       -11.5729
  85   1.0000      -0.417240       -11.3537
  86   1.0000      -0.411800       -11.2056
  87   1.0000      -0.406648       -11.0654
  88   1.0000      -0.399434       -10.8692
  89   1.0000      -0.385031       -10.4772
  90   1.0000      -0.380962       -10.3665
  91   1.0000      -0.345037        -9.3889
  92   1.0000      -0.272681        -7.4200
  93   1.0000      -0.250451        -6.8151
  94   1.0000      -0.238594        -6.4925
  95   1.0000      -0.236797        -6.4436
  96   0.0000       0.004337         0.1180
  97   0.0000       0.011711         0.3187
  98   0.0000       0.029079         0.7913
  99   0.0000       0.054777         1.4906
 100   0.0000       0.073182         1.9914

                 SPIN DOWN ORBITALS
  NO   OCC          E(Eh)            E(eV)
   0   1.0000     -24.751046      -673.5102
   1   1.0000     -24.737909      -673.1527
   2   1.0000     -24.736987      -673.1276
   3   1.0000     -24.736695      -673.1197
   4   1.0000     -24.736655      -673.1186
   5   1.0000     -24.734681      -673.0649
   6   1.0000     -24.733070      -673.0211
   7   1.0000     -24.732883      -673.0160
   8   1.0000     -24.732504      -673.0056
   9   1.0000     -24.729812      -672.9324
  10   1.0000     -24.722790      -672.7413
  11   1.0000     -24.722649      -672.7375
  12   1.0000     -24.698007      -672.0669
  13   1.0000     -24.697873      -672.0633
  14   1.0000     -19.061338      -518.6854
  15   1.0000     -19.059562      -518.6370
  16   1.0000     -10.457589      -284.5655
  17   1.0000     -10.404170      -283.1119
  18   1.0000     -10.398125      -282.9474
  19   1.0000     -10.395485      -282.8755
  20   1.0000     -10.380985      -282.4810
  21   1.0000     -10.343263      -281.4545
  22   1.0000     -10.311249      -280.5833
  23   1.0000     -10.254244      -279.0322
  24   1.0000      -1.337928       -36.4069
  25   1.0000      -1.322775       -35.9945
  26   1.0000      -1.305210       -35.5166
  27   1.0000      -1.298333       -35.3294
  28   1.0000      -1.290296       -35.1107
  29   1.0000      -1.285312       -34.9751
  30   1.0000      -1.262287       -34.3486
  31   1.0000      -1.255457       -34.1627
  32   1.0000      -1.251263       -34.0486
  33   1.0000      -1.244874       -33.8747
  34   1.0000      -1.243749       -33.8441
  35   1.0000      -1.241848       -33.7924
  36   1.0000      -1.232791       -33.5460
  37   1.0000      -1.204566       -32.7779
  38   1.0000      -1.024620       -27.8813
  39   1.0000      -0.942080       -25.6353
  40   1.0000      -0.840903       -22.8821
  41   1.0000      -0.818876       -22.2827
  42   1.0000      -0.787394       -21.4261
  43   1.0000      -0.753652       -20.5079
  44   1.0000      -0.710461       -19.3326
  45   1.0000      -0.673517       -18.3273
  46   1.0000      -0.668244       -18.1838
  47   1.0000      -0.637101       -17.3364
  48   1.0000      -0.630446       -17.1553
  49   1.0000      -0.629999       -17.1431
  50   1.0000      -0.622255       -16.9324
  51   1.0000      -0.616662       -16.7802
  52   1.0000      -0.615181       -16.7399
  53   1.0000      -0.602405       -16.3923
  54   1.0000      -0.599071       -16.3015
  55   1.0000      -0.592968       -16.1355
  56   1.0000      -0.582932       -15.8624
  57   1.0000      -0.578052       -15.7296
  58   1.0000      -0.573698       -15.6111
  59   1.0000      -0.563842       -15.3429
  60   1.0000      -0.549873       -14.9628
  61   1.0000      -0.505976       -13.7683
  62   1.0000      -0.502645       -13.6777
  63   1.0000      -0.501143       -13.6368
  64   1.0000      -0.497618       -13.5409
  65   1.0000      -0.492478       -13.4010
  66   1.0000      -0.489977       -13.3329
  67   1.0000      -0.485587       -13.2135
  68   1.0000      -0.481585       -13.1046
  69   1.0000      -0.479787       -13.0557
  70   1.0000      -0.472505       -12.8575
  71   1.0000      -0.469090       -12.7646
  72   1.0000      -0.464881       -12.6500
  73   1.0000      -0.458785       -12.4842
  74   1.0000      -0.458304       -12.4711
  75   1.0000      -0.454378       -12.3642
  76   1.0000      -0.451569       -12.2878
  77   1.0000      -0.449176       -12.2227
  78   1.0000      -0.445060       -12.1107
  79   1.0000      -0.440834       -11.9957
  80   1.0000      -0.437537       -11.9060
  81   1.0000      -0.433782       -11.8038
  82   1.0000      -0.432981       -11.7820
  83   1.0000      -0.431854       -11.7514
  84   1.0000      -0.423634       -11.5277
  85   1.0000      -0.415762       -11.3135
  86   1.0000      -0.411795       -11.2055
  87   1.0000      -0.404976       -11.0200
  88   1.0000      -0.399405       -10.8684
  89   1.0000      -0.385015       -10.4768
  90   1.0000      -0.378925       -10.3111
  91   1.0000      -0.343562        -9.3488
  92   1.0000      -0.250444        -6.8149
  93   1.0000      -0.238677        -6.4947
  94   1.0000      -0.236800        -6.4436
  95   0.0000      -0.126520        -3.4428
  96   0.0000       0.006518         0.1774
  97   0.0000       0.015417         0.4195
  98   0.0000       0.032833         0.8934
  99   0.0000       0.057708         1.5703

MULLIKEN ATOMIC CHARGES AND SPIN POPULATIONS
--------------------------------------------
   0 C :    0.143370    0.000161
   1 O :   -0.472501    0.000410
   2 O :   -0.486311    0.000095
   3 C :    0.342444    0.000451
   4 C :    0.317776    0.001797
   5 C :    0.326406    0.004322
   6 C :    0.319431    0.028304
   7 C :    0.380781   -0.011165
   8 C :    0.136835    0.831554
   9 C :    0.490111   -0.009644
  10 F :   -0.211896   -0.000003
  11 F :   -0.218275    0.000059
  12 F :   -0.184789    0.000011
  13 F :   -0.191978    0.000061
  14 F :   -0.177135   -0.000054
  15 F :   -0.176780    0.000167
  16 F :   -0.175922    0.000661
  17 F :   -0.176122    0.000463
  18 F :   -0.176326    0.016112
  19 F :   -0.174018    0.005473
  20 F :   -0.139126    0.089879
  21 F :   -0.169644    0.025689
  22 F :   -0.160962    0.003772
  23 F :   -0.165368    0.011426
Sum of atomic charges         :   -1.0000000

LOEWDIN ATOMIC CHARGES AND SPIN POPULATIONS
-------------------------------------------
   0 C :   -0.693746    0.000176
   1 O :   -0.050285    0.000371
   2 O :   -0.056777    0.000087
   3 C :   -0.436334    0.000581
   4 C :   -0.452526    0.001469
   5 C :   -0.453612    0.004467
   6 C :   -0.450135    0.021568
   7 C :   -0.475701    0.062616
   8 C :   -0.167056    0.660959
   9 C :   -0.665816    0.058697
  10 F :    0.163593   -0.000011
  11 F :    0.154796    0.000065
  12 F :    0.207696   -0.000039
  13 F :    0.201812    0.000074
  14 F :    0.213856   -0.000041
  15 F :    0.214758    0.000234
  16 F :    0.218029    0.001285
  17 F :    0.219440    0.000978
  18 F :    0.205935    0.017068
  19 F :    0.215717    0.005998
  20 F :    0.266155    0.115205
  21 F :    0.193801    0.029568
  22 F :    0.218124    0.004610
  23 F :    0.208276    0.014015

  Mayer bond orders larger than 0.100000
B(  0-C ,  1-O ) :   1.8977 B(  0-C ,  2-O ) :   1.8733 B(  0-C ,  3-C ) :   0.8451
B(  3-C ,  4-C ) :   0.9223 B(  3-C , 10-F ) :   1.0443 B(  3-C , 11-F ) :   1.0308
B(  4-C ,  5-C ) :   0.9225 B(  4-C , 12-F ) :   1.0667 B(  4-C , 13-F ) :   1.0548
B(  5-C ,  6-C ) :   0.9277 B(  5-C , 14-F ) :   1.0688 B(  5-C , 15-F ) :   1.0773
B(  6-C ,  7-C ) :   0.9329 B(  6-C , 16-F ) :   1.0720 B(  6-C , 17-F ) :   1.0821
B(  7-C ,  8-C ) :   1.0003 B(  7-C , 18-F ) :   1.0704 B(  7-C , 19-F ) :   1.0870
B(  8-C ,  9-C ) :   1.0439 B(  8-C , 20-F ) :   1.1332 B(  9-C , 21-F ) :   1.1314
B(  9-C , 22-F ) :   1.1442 B(  9-C , 23-F ) :   1.1352

Dispersion correction           -0.041991447
FINAL SINGLE POINT ENERGY     -1853.283223051397

DIPOLE MOMENT
-------------

Method             : SCF
Type of density    : Electron Density
Multiplicity       :   2
Irrep              :   0
Energy             : -1853.2412316043544251 Eh
Relativity type    :
Basis              : AO
                                X                 Y                 Z
Electronic contribution:    -17.176434538      -1.794455513       2.842590226
Nuclear contribution   :      8.656686681       1.045990793      -1.376503125
                        -----------------------------------------
Total Dipole Moment    :     -8.519747857      -0.748464720       1.466087101
                        -----------------------------------------
Magnitude (a.u.)       :      8.677310319
Magnitude (Debye)      :     22.055970015

VIBRATIONAL FREQUENCIES
-----------------------

Scaling factor for frequencies =  1.000000000  (already applied!)

     0:       0.00 cm**-1
     1:       0.00 cm**-1
     2:       0.00 cm**-1
     3:       0.00 cm**-1
     4:       0.00 cm**-1
     5:       0.00 cm**-1
     6:       9.43 cm**-1
     7:      19.22 cm**-1
     8:      24.76 cm**-1
     9:      32.01 cm**-1
    10:      38.33 cm**-1
    11:      52.44 cm**-1
    12:      59.32 cm**-1
    13:      68.45 cm**-1
    14:      98.16 cm**-1
    15:     127.84 cm**-1
    16:     151.18 cm**-1
    17:     166.61 cm**-1
    18:     195.58 cm**-1
    19:     196.19 cm**-1
    20:     211.57 cm**-1
    21:     228.42 cm**-1
    22:     247.44 cm**-1
    23:     251.38 cm**-1
    24:     262.60 cm**-1
    25:     274.86 cm**-1
    26:     302.63 cm**-1
    27:     311.17 cm**-1
    28:     323.13 cm**-1
    29:     347.87 cm**-1
    30:     350.23 cm**-1
    31:     361.75 cm**-1
    32:     368.54 cm**-1
    33:     370.97 cm**-1
    34:     403.00 cm**-1
    35:     430.84 cm**-1
    36:     465.70 cm**-1
    37:     493.95 cm**-1
    38:     534.26 cm**-1
    39:     546.31 cm**-1
    40:     550.38 cm**-1
    41:     563.55 cm**-1
    42:     577.20 cm**-1
    43:     598.81 cm**-1
    44:     626.88 cm**-1
    45:     650.85 cm**-1
    46:     668.32 cm**-1
    47:     712.47 cm**-1
    48:     714.99 cm**-1
    49:     768.86 cm**-1
    50:     792.20 cm**-1
    51:     875.21 cm**-1
    52:     993.43 cm**-1
    53:    1054.58 cm**-1
    54:    1070.13 cm**-1
    55:    1085.14 cm**-1
    56:    1107.40 cm**-1
    57:    1113.29 cm**-1
    58:    1118.29 cm**-1
    59:    1130.50 cm**-1
    60:    1140.51 cm**-1
    61:    1146.75 cm**-1
    62:    1151.88 cm**-1
    63:    1159.54 cm**-1
    64:    1196.11 cm**-1
    65:    1203.62 cm**-1
    66:    1257.15 cm**-1
    67:    1287.84 cm**-1
    68:    1327.18 cm**-1
    69:    1369.53 cm**-1
    70:    1412.44 cm**-1
    71:    1731.09 cm**-1

IR SPECTRUM
-----------

 Mode   freq       eps      Int      T**2         TX        TY        TZ
       cm**-1   L/(mol*cm) km/mol    a.u.
----------------------------------------------------------------------------
  6:      9.43   0.000228    1.15  0.007547  (-0.000953 -0.031816 -0.080831)
  7:     19.22   0.000432    2.18  0.007012  ( 0.030088 -0.064594  0.043983)
  8:     24.76   0.000091    0.46  0.001141  (-0.004867 -0.004861 -0.033071)
  9:     32.01   0.000431    2.18  0.004199  (-0.018546 -0.043165 -0.044632)
 10:     38.33   0.000089    0.45  0.000725  (-0.012621 -0.012001 -0.020542)
 11:     52.44   0.000209    1.06  0.001245  (-0.005890  0.033553  0.009181)
 12:     59.32   0.000030    0.15  0.000158  (-0.005726 -0.003103 -0.010730)
 13:     68.45   0.000461    2.33  0.002100  ( 0.022468 -0.031168  0.024968)
 14:     98.16   0.000398    2.01  0.001264  ( 0.025180 -0.015173  0.019987)
 15:    127.84   0.001176    5.94  0.002871  (-0.042818 -0.006323 -0.031585)
 16:    151.18   0.000286    1.45  0.000590  (-0.020993  0.011289  0.004714)
 17:    166.61   0.001238    6.25  0.002318  (-0.027206 -0.002587  0.039636)
 18:    195.58   0.000510    2.58  0.000814  ( 0.021853 -0.005905 -0.017378)
 19:    196.19   0.001777    8.98  0.002827  ( 0.019668  0.020559  0.044912)
 20:    211.57   0.000098    0.50  0.000145  ( 0.006342  0.007692 -0.006770)
 21:    228.42   0.000201    1.02  0.000275  ( 0.012802 -0.010526  0.000418)
 22:    247.44   0.000073    0.37  0.000091  ( 0.004299 -0.004225 -0.007425)
 23:    251.38   0.000036    0.18  0.000045  ( 0.002854 -0.002174 -0.005690)
 24:    262.60   0.000264    1.33  0.000313  (-0.009888  0.000899 -0.014653)
 25:    274.86   0.000369    1.86  0.000419  (-0.019639  0.001316 -0.005590)
 26:    302.63   0.000379    1.92  0.000391  ( 0.017541 -0.007701 -0.004918)
 27:    311.17   0.000198    1.00  0.000199  (-0.010850  0.008931  0.001101)
 28:    323.13   0.000037    0.19  0.000036  ( 0.002124  0.000252 -0.005571)
 29:    347.87   0.000223    1.13  0.000200  ( 0.012463 -0.000730  0.006622)
 30:    350.23   0.000291    1.47  0.000259  ( 0.007300  0.002296  0.014153)
 31:    361.75   0.000111    0.56  0.000096  ( 0.009701 -0.001404 -0.000187)
 32:    368.54   0.000725    3.67  0.000614  ( 0.024535 -0.000535  0.003473)
 33:    370.97   0.000020    0.10  0.000017  ( 0.003970  0.000756  0.000642)
 34:    403.00   0.000833    4.21  0.000645  ( 0.025271  0.001599  0.001894)
 35:    430.84   0.001503    7.60  0.001089  ( 0.032847 -0.002917  0.001223)
 36:    465.70   0.000822    4.16  0.000551  (-0.010017 -0.012358 -0.017260)
 37:    493.95   0.005203   26.29  0.003287  (-0.054893  0.016512  0.001081)
 38:    534.26   0.003208   16.21  0.001874  ( 0.040222 -0.005308  0.015089)
 39:    546.31   0.009900   50.03  0.005655  (-0.074797  0.006782 -0.003774)
 40:    550.38   0.004367   22.07  0.002476  ( 0.029532 -0.033613  0.021770)
 41:    563.55   0.005517   27.88  0.003055  ( 0.041492  0.032616 -0.016424)
 42:    577.20   0.000977    4.94  0.000528  ( 0.014526 -0.015113 -0.009432)
 43:    598.81   0.000755    3.82  0.000394  (-0.016645 -0.010595  0.002070)
 44:    626.88   0.002578   13.03  0.001284  ( 0.028277 -0.012336  0.018214)
 45:    650.85   0.049657  250.95  0.023809  ( 0.153484  0.015441 -0.003657)
 46:    668.32   0.000392    1.98  0.000183  ( 0.010701 -0.008063  0.001884)
 47:    712.47   0.000999    5.05  0.000438  (-0.016016 -0.005034  0.012485)
 48:    714.99   0.003470   17.54  0.001515  (-0.027965  0.013887 -0.023232)
 49:    768.86   0.002805   14.17  0.001138  (-0.030201  0.000805  0.015019)
 50:    792.20   0.020788  105.05  0.008189  (-0.057423 -0.033201  0.061556)
 51:    875.21   0.004512   22.80  0.001609  (-0.039467  0.004962 -0.005155)
 52:    993.43   0.018875   95.39  0.005929  ( 0.052587 -0.029214  0.048066)
 53:   1054.58   0.020308  102.63  0.006010  ( 0.053006  0.054290  0.015889)
 54:   1070.13   0.080955  409.11  0.023607  (-0.045268 -0.144235  0.027466)
 55:   1085.14   0.053691  271.33  0.015440  ( 0.012257  0.092368  0.082209)
 56:   1107.40   0.068040  343.85  0.019174  ( 0.021943 -0.100537  0.092652)
 57:   1113.29   0.005099   25.77  0.001429  (-0.017928  0.026693  0.019884)
 58:   1118.29   0.067314  340.18  0.018784  (-0.007504 -0.129547  0.044108)
 59:   1130.50   0.018297   92.46  0.005051  ( 0.003188  0.062385  0.033890)
 60:   1140.51   0.087444  441.91  0.023926  ( 0.006472 -0.023550 -0.152741)
 61:   1146.75   0.095620  483.22  0.026021  ( 0.039231  0.046385  0.149433)
 62:   1151.88   0.106219  536.79  0.028777  ( 0.057592 -0.075731 -0.140444)
 63:   1159.54   0.002310   11.68  0.000622  (-0.002414 -0.024592  0.003351)
 64:   1196.11   0.015295   77.29  0.003990  ( 0.002117 -0.004196  0.062995)
 65:   1203.62   0.002482   12.55  0.000644  (-0.011797 -0.007835 -0.021049)
 66:   1257.15   0.002892   14.62  0.000718  ( 0.013759 -0.016925 -0.015563)
 67:   1287.84   0.007272   36.75  0.001762  ( 0.036619  0.020198 -0.003634)
 68:   1327.18   0.039020  197.19  0.009175  ( 0.068504 -0.054384  0.039044)
 69:   1369.53   0.059472  300.55  0.013551  ( 0.105242  0.025178 -0.042913)
 70:   1412.44   0.012808   64.73  0.002830  ( 0.045818 -0.015359 -0.022239)
 71:   1731.09   0.161611  816.72  0.029134  ( 0.034161 -0.154203 -0.064716)

--------------------------
THERMOCHEMISTRY AT 298.15K
--------------------------

Temperature         ...   298.15 K
Pressure            ...     1.00 atm
Total Mass          ...   394.06 AMU
Quasi RRHO          ...     True
Cut-Off Frequency   ...     1.00 cm^-1

Throughout the following assumptions are being made:
  (1) The electronic state is orbitally nondegenerate
      but the spin degeneracy is treated
  (2) There are no thermally accessible electronically excited states
  (3) Hindered rotations indicated by low frequency modes are not
      treated as such but are treated as vibrations and this may
      cause some error
  (4) All equations used are the standard statistical mechanics
      equations for an ideal gas
  (5) All vibrations are strictly harmonic

freq.       9.43  E(vib)   ...       0.58
freq.      19.22  E(vib)   ...       0.57
freq.      24.76  E(vib)   ...       0.56
freq.      32.01  E(vib)   ...       0.55
freq.      38.33  E(vib)   ...       0.54
freq.      52.44  E(vib)   ...       0.52
freq.      59.32  E(vib)   ...       0.51
freq.      68.45  E(vib)   ...       0.50
freq.      98.16  E(vib)   ...       0.46
freq.     127.84  E(vib)   ...       0.43
freq.     151.18  E(vib)   ...       0.40
freq.     166.61  E(vib)   ...       0.39
freq.     195.58  E(vib)   ...       0.36
freq.     196.19  E(vib)   ...       0.36
freq.     211.57  E(vib)   ...       0.34
freq.     228.42  E(vib)   ...       0.32
freq.     247.44  E(vib)   ...       0.31
freq.     251.38  E(vib)   ...       0.30
freq.     262.60  E(vib)   ...       0.29
freq.     274.86  E(vib)   ...       0.28
freq.     302.63  E(vib)   ...       0.26
freq.     311.17  E(vib)   ...       0.26
freq.     323.13  E(vib)   ...       0.25
freq.     347.87  E(vib)   ...       0.23
freq.     350.23  E(vib)   ...       0.23
freq.     361.75  E(vib)   ...       0.22
freq.     368.54  E(vib)   ...       0.21
freq.     370.97  E(vib)   ...       0.21
freq.     403.00  E(vib)   ...       0.19
freq.     430.84  E(vib)   ...       0.18
freq.     465.70  E(vib)   ...       0.16
freq.     493.95  E(vib)   ...       0.14
freq.     534.26  E(vib)   ...       0.13
freq.     546.31  E(vib)   ...       0.12
freq.     550.38  E(vib)   ...       0.12
freq.     563.55  E(vib)   ...       0.11
freq.     577.20  E(vib)   ...       0.11
freq.     598.81  E(vib)   ...       0.10
freq.     626.88  E(vib)   ...       0.09
freq.     650.85  E(vib)   ...       0.08
freq.     668.32  E(vib)   ...       0.08
freq.     712.47  E(vib)   ...       0.07
freq.     714.99  E(vib)   ...       0.07
freq.     768.86  E(vib)   ...       0.06
freq.     792.20  E(vib)   ...       0.05
freq.     875.21  E(vib)   ...       0.04
freq.     993.43  E(vib)   ...       0.02
freq.    1054.58  E(vib)   ...       0.02
freq.    1070.13  E(vib)   ...       0.02
freq.    1085.14  E(vib)   ...       0.02
freq.    1107.40  E(vib)   ...       0.02
freq.    1113.29  E(vib)   ...       0.01
freq.    1118.29  E(vib)   ...       0.01
freq.    1130.50  E(vib)   ...       0.01
freq.    1140.51  E(vib)   ...       0.01
freq.    1146.75  E(vib)   ...       0.01
freq.    1151.88  E(vib)   ...       0.01
freq.    1159.54  E(vib)   ...       0.01
freq.    1196.11  E(vib)   ...       0.01
freq.    1203.62  E(vib)   ...       0.01
freq.    1257.15  E(vib)   ...       0.01
freq.    1287.84  E(vib)   ...       0.01
freq.    1327.18  E(vib)   ...       0.01
freq.    1369.53  E(vib)   ...       0.01
freq.    1412.44  E(vib)   ...       0.00
freq.    1731.09  E(vib)   ...       0.00

------------
INNER ENERGY
------------

The inner energy is: U= E(el) + E(ZPE) + E(vib) + E(rot) + E(trans)
    E(el)   - is the total energy from the electronic structure calculation
              = E(kin-el) + E(nuc-el) + E(el-el) + E(nuc-nuc)
    E(ZPE)  - the the zero temperature vibrational energy from the frequency calculation
    E(vib)  - the the finite temperature correction to E(ZPE) due to population
              of excited vibrational states
    E(rot)  - is the rotational thermal energy
    E(trans)- is the translational thermal energy

Summary of contributions to the inner energy U:
Electronic energy                ...  -1853.28322305 Eh
Zero point energy                ...      0.09222540 Eh      57.87 kcal/mol
Thermal vibrational correction   ...      0.02001882 Eh      12.56 kcal/mol
Thermal rotational correction    ...      0.00141627 Eh       0.89 kcal/mol
Thermal translational correction ...      0.00141627 Eh       0.89 kcal/mol
-----------------------------------------------------------------------
Total thermal energy                  -1853.16814629 Eh

Summary of corrections to the electronic energy:
(perhaps to be used in another calculation)
Total thermal correction                  0.02285136 Eh      14.34 kcal/mol
Non-thermal (ZPE) correction              0.09222540 Eh      57.87 kcal/mol
-----------------------------------------------------------------------
Total correction                          0.11507676 Eh      72.21 kcal/mol

--------
ENTHALPY
--------

The enthalpy is H = U + kB*T
                kB is Boltzmann's constant
Total thermal energy              ...  -1853.16814629 Eh
Thermal Enthalpy correction       ...      0.00094421 Eh       0.59 kcal/mol
-----------------------------------------------------------------------
Total Enthalpy                    ...  -1853.16720208 Eh

Note: Only C1 symmetry has been detected, increase convergence thresholds
      if your molecule has a higher symmetry. Symmetry factor of 1.0 is
      used for the rotational entropy correction.

Note: Rotational entropy computed according to Herzberg
Infrared and Raman Spectra, Chapter V,1, Van Nostrand Reinhold, 1945
Point Group:  C1, Symmetry Number:   1
Rotational constants in cm-1:     0.020966     0.004036     0.003974

Vibrational entropy computed according to the QRRHO of S. Grimme
Chem.Eur.J. 2012 18 9955 using a reference frequency of 100.0 cm-1

-------
ENTROPY
-------

The entropy contributions are T*S = T*(S(el)+S(vib)+S(rot)+S(trans))
     S(el)   - electronic entropy
     S(vib)  - vibrational entropy
     S(rot)  - rotational entropy
     S(trans)- translational entropy
The entropies will be listed as multiplied by the temperature to get
units of energy

Electronic entropy                ...      0.00065446 Eh      0.41 kcal/mol
Vibrational entropy               ...      0.03692326 Eh     23.17 kcal/mol
Rotational entropy                ...      0.01654742 Eh     10.38 kcal/mol
Translational entropy             ...      0.02081341 Eh     13.06 kcal/mol
-----------------------------------------------------------------------

                             ****ORCA TERMINATED NORMALLY****
TOTAL RUN TIME: 0 days 0 hours 19 minutes 13 seconds 592 msec
