                         Program Version 6.0.1  -  RELEASE   -
|  1> !r2scanh def2-TZVP freq d3 TightSCF SlowConv defgrid2
|  2>
|  3> %pal
|  4> nprocs 20
|  5> end
|  6>
|  7> %scf
|  8> MaxIter 1500
|  9> end
| 10>
| 11> %maxcore 8000
| 12>
| 13> !CPCM
| 14> %cpcm smd true
| 15> SMDsolvent "ACETONITRILE"
| 16> end
| 17>
| 18> * xyz -1 2
| 19> 6        3.803972000     -0.788940000     -1.071484000
| 20> 8        3.381375000     -1.499270000     -1.989666000
| 21> 8        4.875821000     -0.188820000     -0.915906000
| 22> 6        2.804520000     -0.585035000      0.126343000
| 23> 6        2.173597000      0.829404000      0.154346000
| 24> 6        0.981188000      0.947333000      1.048831000
| 25> 6       -0.439283000      1.243751000      0.686360000
| 26> 6       -1.242380000     -0.001930000      0.208946000
| 27> 6       -2.782914000      0.207788000      0.154981000
| 28> 6       -3.525994000     -0.827961000     -0.731468000
| 29> 9        1.763521000     -1.464229000      0.081446000
| 30> 9        3.423864000     -0.787289000      1.320640000
| 31> 9        3.117465000      1.717047000      0.559099000
| 32> 9        1.814304000      1.153147000     -1.109064000
| 33> 9        1.156880000      0.504119000      2.281339000
| 34> 9       -1.067933000      1.722854000      1.785603000
| 35> 9       -0.490406000      2.175365000     -0.281852000
| 36> 9       -0.992289000     -1.011678000      1.059281000
| 37> 9       -0.795549000     -0.345781000     -1.010667000
| 38> 9       -3.066027000      1.428983000     -0.323775000
| 39> 9       -3.273255000      0.106727000      1.398144000
| 40> 9       -3.139556000     -2.062240000     -0.425937000
| 41> 9       -4.832024000     -0.721820000     -0.513970000
| 42> 9       -3.291518000     -0.604410000     -2.017187000
| 43> *
| 44>
| 45>                          ****END OF INPUT****

CARTESIAN COORDINATES (ANGSTROEM)
---------------------------------
  C      3.803972   -0.788940   -1.071484
  O      3.381375   -1.499270   -1.989666
  O      4.875821   -0.188820   -0.915906
  C      2.804520   -0.585035    0.126343
  C      2.173597    0.829404    0.154346
  C      0.981188    0.947333    1.048831
  C     -0.439283    1.243751    0.686360
  C     -1.242380   -0.001930    0.208946
  C     -2.782914    0.207788    0.154981
  C     -3.525994   -0.827961   -0.731468
  F      1.763521   -1.464229    0.081446
  F      3.423864   -0.787289    1.320640
  F      3.117465    1.717047    0.559099
  F      1.814304    1.153147   -1.109064
  F      1.156880    0.504119    2.281339
  F     -1.067933    1.722854    1.785603
  F     -0.490406    2.175365   -0.281852
  F     -0.992289   -1.011678    1.059281
  F     -0.795549   -0.345781   -1.010667
  F     -3.066027    1.428983   -0.323775
  F     -3.273255    0.106727    1.398144
  F     -3.139556   -2.062240   -0.425937
  F     -4.832024   -0.721820   -0.513970
  F     -3.291518   -0.604410   -2.017187

 Total Charge           Charge          ....   -1
 Multiplicity           Mult            ....    2
 Number of Electrons    NEL             ....  191
 Basis Dimension        Dim             ....  744

ORBITAL ENERGIES
----------------
                 SPIN UP ORBITALS
  NO   OCC          E(Eh)            E(eV)
   0   1.0000     -24.733859      -673.0425
   1   1.0000     -24.731314      -672.9733
   2   1.0000     -24.730159      -672.9418
   3   1.0000     -24.729524      -672.9246
   4   1.0000     -24.729321      -672.9190
   5   1.0000     -24.729010      -672.9106
   6   1.0000     -24.727964      -672.8821
   7   1.0000     -24.727448      -672.8681
   8   1.0000     -24.720672      -672.6837
   9   1.0000     -24.720446      -672.6775
  10   1.0000     -24.707953      -672.3376
  11   1.0000     -24.700573      -672.1368
  12   1.0000     -24.685565      -671.7284
  13   1.0000     -24.685417      -671.7244
  14   1.0000     -19.048748      -518.3428
  15   1.0000     -19.047055      -518.2967
  16   1.0000     -10.438485      -284.0456
  17   1.0000     -10.382855      -282.5318
  18   1.0000     -10.380487      -282.4674
  19   1.0000     -10.380179      -282.4590
  20   1.0000     -10.357692      -281.8471
  21   1.0000     -10.319813      -280.8164
  22   1.0000     -10.298208      -280.2285
  23   1.0000     -10.233028      -278.4548
  24   1.0000      -1.360263       -37.0146
  25   1.0000      -1.330348       -36.2006
  26   1.0000      -1.313697       -35.7475
  27   1.0000      -1.307820       -35.5876
  28   1.0000      -1.297211       -35.2989
  29   1.0000      -1.287559       -35.0363
  30   1.0000      -1.271012       -34.5860
  31   1.0000      -1.267685       -34.4955
  32   1.0000      -1.265564       -34.4377
  33   1.0000      -1.261781       -34.3348
  34   1.0000      -1.254249       -34.1298
  35   1.0000      -1.248179       -33.9647
  36   1.0000      -1.233092       -33.5541
  37   1.0000      -1.209646       -32.9161
  38   1.0000      -1.028475       -27.9862
  39   1.0000      -0.943971       -25.6867
  40   1.0000      -0.848656       -23.0931
  41   1.0000      -0.826385       -22.4871
  42   1.0000      -0.786906       -21.4128
  43   1.0000      -0.749697       -20.4003
  44   1.0000      -0.705237       -19.1905
  45   1.0000      -0.681475       -18.5439
  46   1.0000      -0.652728       -17.7616
  47   1.0000      -0.636314       -17.3150
  48   1.0000      -0.633738       -17.2449
  49   1.0000      -0.626523       -17.0486
  50   1.0000      -0.612717       -16.6729
  51   1.0000      -0.606824       -16.5125
  52   1.0000      -0.605743       -16.4831
  53   1.0000      -0.595956       -16.2168
  54   1.0000      -0.591361       -16.0918
  55   1.0000      -0.580483       -15.7957
  56   1.0000      -0.578352       -15.7378
  57   1.0000      -0.567733       -15.4488
  58   1.0000      -0.566727       -15.4214
  59   1.0000      -0.548864       -14.9353
  60   1.0000      -0.538429       -14.6514
  61   1.0000      -0.512794       -13.9538
  62   1.0000      -0.499418       -13.5899
  63   1.0000      -0.494502       -13.4561
  64   1.0000      -0.488911       -13.3039
  65   1.0000      -0.484877       -13.1942
  66   1.0000      -0.480916       -13.0864
  67   1.0000      -0.473084       -12.8733
  68   1.0000      -0.469539       -12.7768
  69   1.0000      -0.465360       -12.6631
  70   1.0000      -0.458641       -12.4803
  71   1.0000      -0.455739       -12.4013
  72   1.0000      -0.453060       -12.3284
  73   1.0000      -0.448766       -12.2115
  74   1.0000      -0.448012       -12.1910
  75   1.0000      -0.445537       -12.1237
  76   1.0000      -0.437114       -11.8945
  77   1.0000      -0.436763       -11.8849
  78   1.0000      -0.433322       -11.7913
  79   1.0000      -0.428753       -11.6670
  80   1.0000      -0.426925       -11.6172
  81   1.0000      -0.425420       -11.5763
  82   1.0000      -0.424711       -11.5570
  83   1.0000      -0.415351       -11.3023
  84   1.0000      -0.411242       -11.1905
  85   1.0000      -0.400690       -10.9033
  86   1.0000      -0.396501       -10.7894
  87   1.0000      -0.390262       -10.6196
  88   1.0000      -0.387316       -10.5394
  89   1.0000      -0.375624       -10.2212
  90   1.0000      -0.356025        -9.6879
  91   1.0000      -0.336309        -9.1514
  92   1.0000      -0.259436        -7.0596
  93   1.0000      -0.241017        -6.5584
  94   1.0000      -0.223882        -6.0921
  95   1.0000      -0.222094        -6.0435
  96   0.0000      -0.004391        -0.1195
  97   0.0000       0.018325         0.4986
  98   0.0000       0.021926         0.5966
  99   0.0000       0.049716         1.3528
 100   0.0000       0.076024         2.0687

                 SPIN DOWN ORBITALS
  NO   OCC          E(Eh)            E(eV)
   0   1.0000     -24.731320      -672.9734
   1   1.0000     -24.730157      -672.9418
   2   1.0000     -24.729471      -672.9231
   3   1.0000     -24.729330      -672.9193
   4   1.0000     -24.728995      -672.9102
   5   1.0000     -24.728887      -672.9072
   6   1.0000     -24.727953      -672.8818
   7   1.0000     -24.727439      -672.8678
   8   1.0000     -24.720081      -672.6676
   9   1.0000     -24.719967      -672.6645
  10   1.0000     -24.707893      -672.3359
  11   1.0000     -24.699258      -672.1010
  12   1.0000     -24.685402      -671.7239
  13   1.0000     -24.685351      -671.7226
  14   1.0000     -19.048469      -518.3352
  15   1.0000     -19.047006      -518.2954
  16   1.0000     -10.438415      -284.0437
  17   1.0000     -10.382686      -282.5272
  18   1.0000     -10.381295      -282.4894
  19   1.0000     -10.379625      -282.4439
  20   1.0000     -10.358693      -281.8744
  21   1.0000     -10.319194      -280.7995
  22   1.0000     -10.281394      -279.7709
  23   1.0000     -10.232987      -278.4537
  24   1.0000      -1.360206       -37.0131
  25   1.0000      -1.329859       -36.1873
  26   1.0000      -1.313242       -35.7351
  27   1.0000      -1.306357       -35.5478
  28   1.0000      -1.295048       -35.2400
  29   1.0000      -1.281038       -34.8588
  30   1.0000      -1.270933       -34.5839
  31   1.0000      -1.267235       -34.4832
  32   1.0000      -1.265502       -34.4361
  33   1.0000      -1.261554       -34.3286
  34   1.0000      -1.254136       -34.1268
  35   1.0000      -1.247068       -33.9344
  36   1.0000      -1.231457       -33.5096
  37   1.0000      -1.209364       -32.9085
  38   1.0000      -1.028218       -27.9792
  39   1.0000      -0.943650       -25.6780
  40   1.0000      -0.839909       -22.8551
  41   1.0000      -0.815763       -22.1980
  42   1.0000      -0.784980       -21.3604
  43   1.0000      -0.742972       -20.2173
  44   1.0000      -0.700618       -19.0648
  45   1.0000      -0.680540       -18.5184
  46   1.0000      -0.648354       -17.6426
  47   1.0000      -0.634707       -17.2713
  48   1.0000      -0.632171       -17.2023
  49   1.0000      -0.626324       -17.0431
  50   1.0000      -0.611273       -16.6336
  51   1.0000      -0.605619       -16.4797
  52   1.0000      -0.602141       -16.3851
  53   1.0000      -0.594501       -16.1772
  54   1.0000      -0.589967       -16.0538
  55   1.0000      -0.577876       -15.7248
  56   1.0000      -0.576586       -15.6897
  57   1.0000      -0.567083       -15.4311
  58   1.0000      -0.564853       -15.3704
  59   1.0000      -0.546919       -14.8824
  60   1.0000      -0.537267       -14.6198
  61   1.0000      -0.499398       -13.5893
  62   1.0000      -0.494900       -13.4669
  63   1.0000      -0.489652       -13.3241
  64   1.0000      -0.485407       -13.2086
  65   1.0000      -0.483014       -13.1435
  66   1.0000      -0.480478       -13.0745
  67   1.0000      -0.471051       -12.8179
  68   1.0000      -0.468336       -12.7441
  69   1.0000      -0.463533       -12.6134
  70   1.0000      -0.456951       -12.4343
  71   1.0000      -0.455211       -12.3869
  72   1.0000      -0.452264       -12.3067
  73   1.0000      -0.447955       -12.1895
  74   1.0000      -0.445470       -12.1218
  75   1.0000      -0.443669       -12.0728
  76   1.0000      -0.436672       -11.8825
  77   1.0000      -0.435343       -11.8463
  78   1.0000      -0.433035       -11.7835
  79   1.0000      -0.427921       -11.6443
  80   1.0000      -0.425629       -11.5820
  81   1.0000      -0.424756       -11.5582
  82   1.0000      -0.423971       -11.5368
  83   1.0000      -0.414553       -11.2806
  84   1.0000      -0.409724       -11.1491
  85   1.0000      -0.399132       -10.8609
  86   1.0000      -0.396098       -10.7784
  87   1.0000      -0.388777       -10.5792
  88   1.0000      -0.386224       -10.5097
  89   1.0000      -0.375287       -10.2121
  90   1.0000      -0.351942        -9.5768
  91   1.0000      -0.333400        -9.0723
  92   1.0000      -0.240755        -6.5513
  93   1.0000      -0.224486        -6.1086
  94   1.0000      -0.222930        -6.0662
  95   0.0000      -0.116280        -3.1641
  96   0.0000      -0.002133        -0.0581
  97   0.0000       0.022683         0.6172
  98   0.0000       0.025325         0.6891
  99   0.0000       0.053211         1.4480

MULLIKEN ATOMIC CHARGES AND SPIN POPULATIONS
--------------------------------------------
   0 C :    0.212752   -0.000476
   1 O :   -0.511245    0.008341
   2 O :   -0.522751    0.001752
   3 C :    0.351608    0.017636
   4 C :    0.341904   -0.020328
   5 C :    0.084371    0.843159
   6 C :    0.409921   -0.023398
   7 C :    0.271230    0.033371
   8 C :    0.335256    0.005570
   9 C :    0.472524    0.002808
  10 F :   -0.211048    0.000745
  11 F :   -0.213928    0.002992
  12 F :   -0.187079    0.021928
  13 F :   -0.192965    0.000581
  14 F :   -0.154677    0.087162
  15 F :   -0.176202    0.009637
  16 F :   -0.169566    0.006811
  17 F :   -0.172766    0.000273
  18 F :   -0.174315    0.000334
  19 F :   -0.164637   -0.000114
  20 F :   -0.162194    0.000287
  21 F :   -0.156847   -0.000065
  22 F :   -0.154661    0.000945
  23 F :   -0.154686    0.000049
Sum of atomic charges         :   -1.0000000

LOEWDIN ATOMIC CHARGES AND SPIN POPULATIONS
-------------------------------------------
   0 C :   -0.696043    0.002639
   1 O :   -0.049461    0.007471
   2 O :   -0.054343    0.001439
   3 C :   -0.443922    0.018219
   4 C :   -0.491583    0.053162
   5 C :   -0.168796    0.661128
   6 C :   -0.493215    0.065208
   7 C :   -0.472267    0.027341
   8 C :   -0.478211    0.006982
   9 C :   -0.679253    0.002056
  10 F :    0.166348    0.001751
  11 F :    0.164490    0.003471
  12 F :    0.193141    0.023389
  13 F :    0.207655    0.001472
  14 F :    0.254242    0.103632
  15 F :    0.211971    0.009979
  16 F :    0.222386    0.008215
  17 F :    0.228390    0.000578
  18 F :    0.228615    0.000678
  19 F :    0.228630   -0.000127
  20 F :    0.228922    0.000329
  21 F :    0.230078   -0.000092
  22 F :    0.229969    0.001018
  23 F :    0.232257    0.000062

  Mayer bond orders larger than 0.100000
B(  0-C ,  1-O ) :   1.8483 B(  0-C ,  2-O ) :   1.8301 B(  0-C ,  3-C ) :   0.8291
B(  3-C ,  4-C ) :   0.9130 B(  3-C , 10-F ) :   1.0143 B(  3-C , 11-F ) :   1.0239
B(  4-C ,  5-C ) :   1.0239 B(  4-C , 12-F ) :   1.0640 B(  4-C , 13-F ) :   1.0561
B(  5-C ,  6-C ) :   0.9945 B(  5-C , 14-F ) :   1.0997 B(  6-C ,  7-C ) :   0.9305
B(  6-C , 15-F ) :   1.0572 B(  6-C , 16-F ) :   1.0928 B(  7-C ,  8-C ) :   0.9160
B(  7-C , 17-F ) :   1.0594 B(  7-C , 18-F ) :   1.0678 B(  8-C ,  9-C ) :   0.9518
B(  8-C , 19-F ) :   1.0864 B(  8-C , 20-F ) :   1.0968 B(  9-C , 21-F ) :   1.1289
B(  9-C , 22-F ) :   1.1326 B(  9-C , 23-F ) :   1.1417

Dispersion correction           -0.008352909
FINAL SINGLE POINT ENERGY     -1853.116905764586

DIPOLE MOMENT
-------------

Method             : SCF
Type of density    : Electron Density
Multiplicity       :   2
Irrep              :   0
Energy             : -1853.1085528555586279 Eh
Relativity type    :
Basis              : AO
                                X                 Y                 Z
Electronic contribution:    -15.153324589       2.497408867       4.376962764
Nuclear contribution   :      8.086944176      -1.055797239      -2.190337181
                        -----------------------------------------
Total Dipole Moment    :     -7.066380413       1.441611628       2.186625582
                        -----------------------------------------
Magnitude (a.u.)       :      7.536133469
Magnitude (Debye)      :     19.155328980

VIBRATIONAL FREQUENCIES
-----------------------

Scaling factor for frequencies =  1.000000000  (already applied!)

     0:       0.00 cm**-1
     1:       0.00 cm**-1
     2:       0.00 cm**-1
     3:       0.00 cm**-1
     4:       0.00 cm**-1
     5:       0.00 cm**-1
     6:      18.54 cm**-1
     7:      23.42 cm**-1
     8:      26.02 cm**-1
     9:      37.46 cm**-1
    10:      50.57 cm**-1
    11:      54.17 cm**-1
    12:      62.03 cm**-1
    13:      88.45 cm**-1
    14:     108.07 cm**-1
    15:     119.61 cm**-1
    16:     165.45 cm**-1
    17:     177.86 cm**-1
    18:     186.43 cm**-1
    19:     200.67 cm**-1
    20:     222.69 cm**-1
    21:     236.31 cm**-1
    22:     240.99 cm**-1
    23:     243.11 cm**-1
    24:     258.14 cm**-1
    25:     282.29 cm**-1
    26:     287.05 cm**-1
    27:     315.33 cm**-1
    28:     330.18 cm**-1
    29:     346.00 cm**-1
    30:     358.56 cm**-1
    31:     365.42 cm**-1
    32:     371.78 cm**-1
    33:     379.72 cm**-1
    34:     409.24 cm**-1
    35:     439.98 cm**-1
    36:     454.97 cm**-1
    37:     514.75 cm**-1
    38:     531.89 cm**-1
    39:     552.99 cm**-1
    40:     564.15 cm**-1
    41:     578.16 cm**-1
    42:     592.20 cm**-1
    43:     606.29 cm**-1
    44:     635.03 cm**-1
    45:     660.37 cm**-1
    46:     694.88 cm**-1
    47:     706.62 cm**-1
    48:     737.59 cm**-1
    49:     788.29 cm**-1
    50:     801.07 cm**-1
    51:     877.64 cm**-1
    52:    1005.44 cm**-1
    53:    1063.74 cm**-1
    54:    1104.55 cm**-1
    55:    1118.69 cm**-1
    56:    1125.24 cm**-1
    57:    1140.79 cm**-1
    58:    1150.68 cm**-1
    59:    1162.30 cm**-1
    60:    1168.77 cm**-1
    61:    1180.03 cm**-1
    62:    1190.81 cm**-1
    63:    1208.12 cm**-1
    64:    1209.68 cm**-1
    65:    1233.93 cm**-1
    66:    1281.11 cm**-1
    67:    1341.09 cm**-1
    68:    1347.68 cm**-1
    69:    1364.71 cm**-1
    70:    1406.09 cm**-1
    71:    1756.50 cm**-1

IR SPECTRUM
-----------

 Mode   freq       eps      Int      T**2         TX        TY        TZ
       cm**-1   L/(mol*cm) km/mol    a.u.
----------------------------------------------------------------------------
  6:     18.54   0.000494    2.50  0.008320  ( 0.075373  0.007673  0.050797)
  7:     23.42   0.000398    2.01  0.005298  (-0.036975 -0.060988  0.014546)
  8:     26.02   0.000664    3.36  0.007967  (-0.078147 -0.023734 -0.036013)
  9:     37.46   0.000149    0.75  0.001238  ( 0.033626  0.009730 -0.003526)
 10:     50.57   0.000071    0.36  0.000440  ( 0.003515  0.018401 -0.009419)
 11:     54.17   0.000110    0.56  0.000636  ( 0.019978 -0.009432  0.012160)
 12:     62.03   0.000083    0.42  0.000416  (-0.017569 -0.001993  0.010172)
 13:     88.45   0.000257    1.30  0.000907  ( 0.002906 -0.025884  0.015112)
 14:    108.07   0.000763    3.85  0.002202  (-0.005634 -0.035040  0.030696)
 15:    119.61   0.001096    5.54  0.002861  ( 0.041068 -0.033121  0.008775)
 16:    165.45   0.000145    0.73  0.000274  ( 0.008628  0.000592  0.014112)
 17:    177.86   0.000909    4.59  0.001595  (-0.022826  0.026594  0.019154)
 18:    186.43   0.000889    4.49  0.001488  (-0.019653  0.011206 -0.031244)
 19:    200.67   0.001280    6.47  0.001990  ( 0.019053  0.028449 -0.028595)
 20:    222.69   0.000654    3.31  0.000917  (-0.021861 -0.003849 -0.020594)
 21:    236.31   0.000085    0.43  0.000113  ( 0.008133  0.004799  0.004864)
 22:    240.99   0.000158    0.80  0.000204  (-0.002402 -0.012486 -0.006513)
 23:    243.11   0.000107    0.54  0.000137  ( 0.007999  0.001044 -0.008493)
 24:    258.14   0.000318    1.61  0.000385  ( 0.014109 -0.004683  0.012798)
 25:    282.29   0.000950    4.80  0.001050  (-0.030538  0.003178  0.010347)
 26:    287.05   0.000633    3.20  0.000688  ( 0.023649  0.004063  0.010596)
 27:    315.33   0.000189    0.95  0.000187  (-0.010614  0.008557  0.001019)
 28:    330.18   0.000236    1.19  0.000223  (-0.011123  0.009970  0.000236)
 29:    346.00   0.000117    0.59  0.000105  (-0.000142 -0.003799  0.009531)
 30:    358.56   0.000052    0.26  0.000045  (-0.005921  0.001153 -0.002989)
 31:    365.42   0.000250    1.26  0.000213  (-0.003139  0.004403 -0.013570)
 32:    371.78   0.000363    1.83  0.000304  (-0.013261  0.011324  0.000539)
 33:    379.72   0.000045    0.23  0.000037  (-0.005166 -0.002347  0.002114)
 34:    409.24   0.000690    3.49  0.000526  (-0.016547 -0.015067 -0.005021)
 35:    439.98   0.000453    2.29  0.000321  ( 0.001232  0.017833 -0.001251)
 36:    454.97   0.001111    5.62  0.000762  ( 0.014284 -0.021661  0.009440)
 37:    514.75   0.000424    2.14  0.000257  (-0.011481 -0.008235  0.007588)
 38:    531.89   0.007193   36.35  0.004220  (-0.062931  0.015251  0.005221)
 39:    552.99   0.000718    3.63  0.000405  ( 0.011611  0.011851 -0.011406)
 40:    564.15   0.003289   16.62  0.001819  ( 0.030217 -0.019559  0.022887)
 41:    578.16   0.003955   19.99  0.002135  (-0.018075  0.037743  0.019582)
 42:    592.20   0.007595   38.38  0.004002  (-0.055690 -0.029535 -0.005324)
 43:    606.29   0.001822    9.21  0.000938  ( 0.021226 -0.020248  0.008785)
 44:    635.03   0.007076   35.76  0.003477  ( 0.058335 -0.008608 -0.000542)
 45:    660.37   0.009338   47.19  0.004413  (-0.059752  0.020518  0.020528)
 46:    694.88   0.016876   85.28  0.007579  (-0.085909  0.006459  0.012511)
 47:    706.62   0.006998   35.37  0.003091  ( 0.016269  0.040469  0.034471)
 48:    737.59   0.019979  100.97  0.008453  (-0.062296 -0.053731 -0.041050)
 49:    788.29   0.007515   37.98  0.002975  (-0.050773 -0.019858 -0.001647)
 50:    801.07   0.021548  108.89  0.008394  (-0.049516  0.007008  0.076768)
 51:    877.64   0.010858   54.87  0.003861  (-0.035716 -0.041146 -0.029869)
 52:   1005.44   0.003118   15.76  0.000968  ( 0.008531 -0.023213  0.018870)
 53:   1063.74   0.038368  193.90  0.011256  (-0.101821 -0.028417  0.008985)
 54:   1104.55   0.054620  276.02  0.015431  (-0.096650 -0.052578 -0.057669)
 55:   1118.69   0.019315   97.61  0.005388  ( 0.035145  0.057451  0.029195)
 56:   1125.24   0.030926  156.29  0.008577  ( 0.023954 -0.070370  0.055237)
 57:   1140.79   0.099102  500.82  0.027109  ( 0.027561 -0.126830 -0.101310)
 58:   1150.68   0.024861  125.64  0.006742  (-0.004472  0.048001 -0.066469)
 59:   1162.30   0.008544   43.18  0.002294  ( 0.005588  0.002345  0.047509)
 60:   1168.77   0.053958  272.68  0.014407  ( 0.016646 -0.055106  0.105324)
 61:   1180.03   0.074227  375.11  0.019630  ( 0.051536  0.017871 -0.129052)
 62:   1190.81   0.122605  619.59  0.032130  ( 0.066159 -0.139300  0.091369)
 63:   1208.12   0.024778  125.22  0.006400  ( 0.052181  0.017504 -0.058060)
 64:   1209.68   0.064004  323.45  0.016511  (-0.020540 -0.055602  0.114008)
 65:   1233.93   0.020843  105.33  0.005271  (-0.068906 -0.003708  0.022573)
 66:   1281.11   0.004621   23.35  0.001126  ( 0.028229 -0.007890 -0.016328)
 67:   1341.09   0.009208   46.53  0.002143  ( 0.030368 -0.020121 -0.028559)
 68:   1347.68   0.033589  169.74  0.007778  ( 0.037231  0.025293  0.075840)
 69:   1364.71   0.077482  391.56  0.017718  ( 0.110638 -0.021293 -0.070877)
 70:   1406.09   0.004726   23.88  0.001049  (-0.030094  0.011296  0.003947)
 71:   1756.50   0.159936  808.25  0.028415  ( 0.112690  0.097145  0.079237)

--------------------------
THERMOCHEMISTRY AT 298.15K
--------------------------

Temperature         ...   298.15 K
Pressure            ...     1.00 atm
Total Mass          ...   394.06 AMU
Quasi RRHO          ...     True
Cut-Off Frequency   ...     1.00 cm^-1

Throughout the following assumptions are being made:
  (1) The electronic state is orbitally nondegenerate
      but the spin degeneracy is treated
  (2) There are no thermally accessible electronically excited states
  (3) Hindered rotations indicated by low frequency modes are not
      treated as such but are treated as vibrations and this may
      cause some error
  (4) All equations used are the standard statistical mechanics
      equations for an ideal gas
  (5) All vibrations are strictly harmonic

freq.      18.54  E(vib)   ...       0.57
freq.      23.42  E(vib)   ...       0.56
freq.      26.02  E(vib)   ...       0.56
freq.      37.46  E(vib)   ...       0.54
freq.      50.57  E(vib)   ...       0.52
freq.      54.17  E(vib)   ...       0.52
freq.      62.03  E(vib)   ...       0.51
freq.      88.45  E(vib)   ...       0.48
freq.     108.07  E(vib)   ...       0.45
freq.     119.61  E(vib)   ...       0.44
freq.     165.45  E(vib)   ...       0.39
freq.     177.86  E(vib)   ...       0.37
freq.     186.43  E(vib)   ...       0.37
freq.     200.67  E(vib)   ...       0.35
freq.     222.69  E(vib)   ...       0.33
freq.     236.31  E(vib)   ...       0.32
freq.     240.99  E(vib)   ...       0.31
freq.     243.11  E(vib)   ...       0.31
freq.     258.14  E(vib)   ...       0.30
freq.     282.29  E(vib)   ...       0.28
freq.     287.05  E(vib)   ...       0.27
freq.     315.33  E(vib)   ...       0.25
freq.     330.18  E(vib)   ...       0.24
freq.     346.00  E(vib)   ...       0.23
freq.     358.56  E(vib)   ...       0.22
freq.     365.42  E(vib)   ...       0.22
freq.     371.78  E(vib)   ...       0.21
freq.     379.72  E(vib)   ...       0.21
freq.     409.24  E(vib)   ...       0.19
freq.     439.98  E(vib)   ...       0.17
freq.     454.97  E(vib)   ...       0.16
freq.     514.75  E(vib)   ...       0.13
freq.     531.89  E(vib)   ...       0.13
freq.     552.99  E(vib)   ...       0.12
freq.     564.15  E(vib)   ...       0.11
freq.     578.16  E(vib)   ...       0.11
freq.     592.20  E(vib)   ...       0.10
freq.     606.29  E(vib)   ...       0.10
freq.     635.03  E(vib)   ...       0.09
freq.     660.37  E(vib)   ...       0.08
freq.     694.88  E(vib)   ...       0.07
freq.     706.62  E(vib)   ...       0.07
freq.     737.59  E(vib)   ...       0.06
freq.     788.29  E(vib)   ...       0.05
freq.     801.07  E(vib)   ...       0.05
freq.     877.64  E(vib)   ...       0.04
freq.    1005.44  E(vib)   ...       0.02
freq.    1063.74  E(vib)   ...       0.02
freq.    1104.55  E(vib)   ...       0.02
freq.    1118.69  E(vib)   ...       0.01
freq.    1125.24  E(vib)   ...       0.01
freq.    1140.79  E(vib)   ...       0.01
freq.    1150.68  E(vib)   ...       0.01
freq.    1162.30  E(vib)   ...       0.01
freq.    1168.77  E(vib)   ...       0.01
freq.    1180.03  E(vib)   ...       0.01
freq.    1190.81  E(vib)   ...       0.01
freq.    1208.12  E(vib)   ...       0.01
freq.    1209.68  E(vib)   ...       0.01
freq.    1233.93  E(vib)   ...       0.01
freq.    1281.11  E(vib)   ...       0.01
freq.    1341.09  E(vib)   ...       0.01
freq.    1347.68  E(vib)   ...       0.01
freq.    1364.71  E(vib)   ...       0.01
freq.    1406.09  E(vib)   ...       0.00
freq.    1756.50  E(vib)   ...       0.00

------------
INNER ENERGY
------------

The inner energy is: U= E(el) + E(ZPE) + E(vib) + E(rot) + E(trans)
    E(el)   - is the total energy from the electronic structure calculation
              = E(kin-el) + E(nuc-el) + E(el-el) + E(nuc-nuc)
    E(ZPE)  - the the zero temperature vibrational energy from the frequency calculation
    E(vib)  - the the finite temperature correction to E(ZPE) due to population
              of excited vibrational states
    E(rot)  - is the rotational thermal energy
    E(trans)- is the translational thermal energy

Summary of contributions to the inner energy U:
Electronic energy                ...  -1853.11690576 Eh
Zero point energy                ...      0.09400265 Eh      58.99 kcal/mol
Thermal vibrational correction   ...      0.01970692 Eh      12.37 kcal/mol
Thermal rotational correction    ...      0.00141627 Eh       0.89 kcal/mol
Thermal translational correction ...      0.00141627 Eh       0.89 kcal/mol
-----------------------------------------------------------------------
Total thermal energy                  -1853.00036365 Eh

Summary of corrections to the electronic energy:
(perhaps to be used in another calculation)
Total thermal correction                  0.02253946 Eh      14.14 kcal/mol
Non-thermal (ZPE) correction              0.09400265 Eh      58.99 kcal/mol
-----------------------------------------------------------------------
Total correction                          0.11654211 Eh      73.13 kcal/mol

--------
ENTHALPY
--------

The enthalpy is H = U + kB*T
                kB is Boltzmann's constant
Total thermal energy              ...  -1853.00036365 Eh
Thermal Enthalpy correction       ...      0.00094421 Eh       0.59 kcal/mol
-----------------------------------------------------------------------
Total Enthalpy                    ...  -1852.99941944 Eh

Note: Only C1 symmetry has been detected, increase convergence thresholds
      if your molecule has a higher symmetry. Symmetry factor of 1.0 is
      used for the rotational entropy correction.

Note: Rotational entropy computed according to Herzberg
Infrared and Raman Spectra, Chapter V,1, Van Nostrand Reinhold, 1945
Point Group:  C1, Symmetry Number:   1
Rotational constants in cm-1:     0.016206     0.005024     0.004592

Vibrational entropy computed according to the QRRHO of S. Grimme
Chem.Eur.J. 2012 18 9955 using a reference frequency of 100.0 cm-1

-------
ENTROPY
-------

The entropy contributions are T*S = T*(S(el)+S(vib)+S(rot)+S(trans))
     S(el)   - electronic entropy
     S(vib)  - vibrational entropy
     S(rot)  - rotational entropy
     S(trans)- translational entropy
The entropies will be listed as multiplied by the temperature to get
units of energy

Electronic entropy                ...      0.00065446 Eh      0.41 kcal/mol
Vibrational entropy               ...      0.03587032 Eh     22.51 kcal/mol
Rotational entropy                ...      0.01649747 Eh     10.35 kcal/mol
Translational entropy             ...      0.02081341 Eh     13.06 kcal/mol
-----------------------------------------------------------------------

                             ****ORCA TERMINATED NORMALLY****
TOTAL RUN TIME: 0 days 0 hours 24 minutes 21 seconds 636 msec
