                         Program Version 6.0.1  -  RELEASE   -
|  1> !r2scanh def2-TZVP opt d3 TightSCF SlowConv defgrid2
|  2>
|  3> %pal
|  4> nprocs 20
|  5> end
|  6>
|  7> %scf
|  8> MaxIter 1500
|  9> end
| 10>
| 11> %maxcore 8000
| 12>
| 13> !CPCM
| 14> %cpcm smd true
| 15> SMDsolvent "ACETONITRILE"
| 16> end
| 17>
| 18> * xyz -2 2
| 19> 6        7.328220000     27.755594000      2.876578000
| 20> 6        6.820965000     26.309455000      3.032926000
| 21> 6        7.274303000     25.165474000      2.088433000
| 22> 6        6.774651000     23.685702000      2.138104000
| 23> 6        7.229332000     22.496223000      1.239361000
| 24> 6        6.750621000     21.031882000      1.438646000
| 25> 6        7.048865000     19.957859000      0.358182000
| 26> 6        6.754127000     18.506280000      0.820075000
| 27> 9        6.985453000     28.256255000      1.688590000
| 28> 9        8.656796000     27.805305000      2.989728000
| 29> 9        6.822452000     28.584561000      3.816476000
| 30> 9        7.167865000     25.948073000      4.301633000
| 31> 9        5.461373000     26.393804000      2.951212000
| 32> 9        6.971513000     25.609662000      0.817270000
| 33> 9        8.642477000     25.102672000      2.238850000
| 34> 9        7.054634000     23.270379000      3.433068000
| 35> 9        5.409800000     23.767118000      1.973555000
| 36> 9        6.882983000     22.843588000     -0.042442000
| 37> 9        8.597429000     22.456969000      1.332065000
| 38> 9        7.296910000     20.595548000      2.606957000
| 39> 9        5.398590000     21.055361000      1.595425000
| 40> 9        6.310776000     20.272578000     -0.741120000
| 41> 9        8.360010000     20.090043000      0.000095000
| 42> 8        7.695888000     17.910855000      1.379254000
| 43> 8        5.592031000     18.105045000      0.620357000
| 44> 8        3.319677000     19.185173000     -0.474923000
| 45> 1        2.789903000     18.388572000     -0.559637000
| 46> 1        4.178908000     18.870087000     -0.127400000
| 47> 1        9.203249000     18.624564000      1.959406000
| 48> 8       10.028849000     19.008740000      2.325781000
| 49> 1        9.895566000     19.957418000      2.227714000
| 50> *
| 51>
| 52>                          ****END OF INPUT****
 Total Charge           Charge          ....   -2
 Multiplicity           Mult            ....    2
 Number of Electrons    NEL             ....  221
Dispersion correction           -0.010051708
FINAL SINGLE POINT ENERGY     -2105.927843077130
Dispersion correction             ... done (  0.0 sec)
Dispersion correction           -0.010048205
FINAL SINGLE POINT ENERGY     -2105.927927304190
Dispersion correction             ... done (  0.0 sec)
Dispersion correction           -0.010042308
FINAL SINGLE POINT ENERGY     -2105.927958834467
Dispersion correction             ... done (  0.0 sec)
FINAL SINGLE POINT ENERGY     -2105.927977732475
FINAL SINGLE POINT ENERGY     -2105.927992203651
FINAL SINGLE POINT ENERGY     -2105.928004571835
FINAL SINGLE POINT ENERGY     -2105.928011812283
FINAL SINGLE POINT ENERGY     -2105.928018192812
FINAL SINGLE POINT ENERGY     -2105.928022552700
FINAL SINGLE POINT ENERGY     -2105.928026204319
FINAL SINGLE POINT ENERGY     -2105.928151480016
FINAL SINGLE POINT ENERGY     -2105.928181622719
FINAL SINGLE POINT ENERGY     -2105.928182511553
FINAL SINGLE POINT ENERGY     -2105.928183494014
FINAL SINGLE POINT ENERGY     -2105.928185254689
FINAL SINGLE POINT ENERGY     -2105.928186478895
FINAL SINGLE POINT ENERGY     -2105.928187523125
Dispersion correction             ... done (  0.0 sec)
Dispersion correction           -0.010015874
FINAL SINGLE POINT ENERGY     -2105.928188241533
Dispersion correction             ... done (  0.0 sec)
Dispersion correction           -0.010018017
FINAL SINGLE POINT ENERGY     -2105.928188895877
Dispersion correction             ... done (  0.0 sec)
                    ***********************HURRAY********************

CARTESIAN COORDINATES (ANGSTROEM)
---------------------------------
  C      7.313427   27.768920    2.850998
  C      6.810116   26.325526    3.038166
  C      7.247644   25.173428    2.097130
  C      6.787514   23.682303    2.188473
  C      7.209078   22.507122    1.256274
  C      6.754687   21.035010    1.457811
  C      7.056455   19.958228    0.382642
  C      6.732321   18.510306    0.835337
  F      6.951023   28.246732    1.659323
  F      8.643008   27.824789    2.945878
  F      6.815424   28.613611    3.782245
  F      7.177325   25.978463    4.305839
  F      5.449631   26.409243    2.976918
  F      6.879697   25.589996    0.834116
  F      8.621618   25.143530    2.186110
  F      7.159304   23.279035    3.459063
  F      5.411463   23.734948    2.108998
  F      6.799968   22.865094   -0.003470
  F      8.580765   22.482940    1.285359
  F      7.311291   20.607873    2.624088
  F      5.400524   21.045347    1.618172
  F      6.345025   20.282593   -0.731698
  F      8.377437   20.070456    0.050216
  O      7.654413   17.902431    1.411054
  O      5.569882   18.124242    0.610143
  O      3.415917   19.134863   -0.741994
  H      2.752381   18.547126   -0.370523
  H      4.245075   18.871872   -0.289835
  H      9.177143   18.574134    1.975484
  O     10.029318   18.889408    2.346689
  H     10.025342   19.831271    2.155213

 Multiplicity           Mult            ....    2
 Number of Electrons    NEL             ....  221
 Basis Dimension        Dim             ....  861

ORBITAL ENERGIES
----------------
                 SPIN UP ORBITALS
  NO   OCC          E(Eh)            E(eV)
   0   1.0000     -24.710064      -672.3950
   1   1.0000     -24.709924      -672.3912
   2   1.0000     -24.703257      -672.2098
   3   1.0000     -24.693613      -671.9474
   4   1.0000     -24.693433      -671.9425
   5   1.0000     -24.685235      -671.7194
   6   1.0000     -24.683569      -671.6741
   7   1.0000     -24.679476      -671.5627
   8   1.0000     -24.679442      -671.5618
   9   1.0000     -24.678825      -671.5450
  10   1.0000     -24.678707      -671.5417
  11   1.0000     -24.675042      -671.4420
  12   1.0000     -24.674995      -671.4407
  13   1.0000     -24.673628      -671.4036
  14   1.0000     -24.672842      -671.3822
  15   1.0000     -19.068673      -518.8850
  16   1.0000     -19.067588      -518.8555
  17   1.0000     -19.057580      -518.5831
  18   1.0000     -19.056685      -518.5588
  19   1.0000     -10.409621      -283.2602
  20   1.0000     -10.339396      -281.3493
  21   1.0000     -10.327829      -281.0345
  22   1.0000     -10.323607      -280.9196
  23   1.0000     -10.323046      -280.9044
  24   1.0000     -10.317007      -280.7400
  25   1.0000     -10.312184      -280.6088
  26   1.0000     -10.238343      -278.5995
  27   1.0000      -1.331856       -36.2416
  28   1.0000      -1.280953       -34.8565
  29   1.0000      -1.277763       -34.7697
  30   1.0000      -1.262715       -34.3602
  31   1.0000      -1.254866       -34.1466
  32   1.0000      -1.252966       -34.0949
  33   1.0000      -1.245759       -33.8988
  34   1.0000      -1.242911       -33.8213
  35   1.0000      -1.235445       -33.6182
  36   1.0000      -1.221911       -33.2499
  37   1.0000      -1.217082       -33.1185
  38   1.0000      -1.207697       -32.8631
  39   1.0000      -1.202124       -32.7114
  40   1.0000      -1.198936       -32.6247
  41   1.0000      -1.194775       -32.5115
  42   1.0000      -1.035778       -28.1850
  43   1.0000      -0.970629       -26.4122
  44   1.0000      -0.967993       -26.3404
  45   1.0000      -0.946912       -25.7668
  46   1.0000      -0.794722       -21.6255
  47   1.0000      -0.783153       -21.3107
  48   1.0000      -0.756536       -20.5864
  49   1.0000      -0.724644       -19.7186
  50   1.0000      -0.685490       -18.6531
  51   1.0000      -0.653326       -17.7779
  52   1.0000      -0.626816       -17.0565
  53   1.0000      -0.599782       -16.3209
  54   1.0000      -0.598710       -16.2917
  55   1.0000      -0.597358       -16.2549
  56   1.0000      -0.582561       -15.8523
  57   1.0000      -0.575008       -15.6468
  58   1.0000      -0.570839       -15.5333
  59   1.0000      -0.563529       -15.3344
  60   1.0000      -0.560999       -15.2655
  61   1.0000      -0.548664       -14.9299
  62   1.0000      -0.548023       -14.9125
  63   1.0000      -0.543490       -14.7891
  64   1.0000      -0.534609       -14.5475
  65   1.0000      -0.529102       -14.3976
  66   1.0000      -0.523424       -14.2431
  67   1.0000      -0.514130       -13.9902
  68   1.0000      -0.495194       -13.4749
  69   1.0000      -0.478898       -13.0315
  70   1.0000      -0.468245       -12.7416
  71   1.0000      -0.467605       -12.7242
  72   1.0000      -0.462660       -12.5896
  73   1.0000      -0.448042       -12.1918
  74   1.0000      -0.445229       -12.1153
  75   1.0000      -0.443715       -12.0741
  76   1.0000      -0.442412       -12.0386
  77   1.0000      -0.438530       -11.9330
  78   1.0000      -0.435622       -11.8539
  79   1.0000      -0.433799       -11.8043
  80   1.0000      -0.430887       -11.7250
  81   1.0000      -0.429872       -11.6974
  82   1.0000      -0.426137       -11.5958
  83   1.0000      -0.421055       -11.4575
  84   1.0000      -0.418832       -11.3970
  85   1.0000      -0.411191       -11.1891
  86   1.0000      -0.408710       -11.1216
  87   1.0000      -0.407013       -11.0754
  88   1.0000      -0.406466       -11.0605
  89   1.0000      -0.402987       -10.9658
  90   1.0000      -0.397183       -10.8079
  91   1.0000      -0.396122       -10.7790
  92   1.0000      -0.391751       -10.6601
  93   1.0000      -0.390190       -10.6176
  94   1.0000      -0.389206       -10.5908
  95   1.0000      -0.385000       -10.4764
  96   1.0000      -0.383970       -10.4483
  97   1.0000      -0.379285       -10.3209
  98   1.0000      -0.376357       -10.2412
  99   1.0000      -0.368286       -10.0216
 100   1.0000      -0.357867        -9.7381
 101   1.0000      -0.341557        -9.2942
 102   1.0000      -0.339128        -9.2282
 103   1.0000      -0.331736        -9.0270
 104   1.0000      -0.300776        -8.1845
 105   1.0000      -0.267447        -7.2776
 106   1.0000      -0.264922        -7.2089
 107   1.0000      -0.248463        -6.7610
 108   1.0000      -0.235125        -6.3981
 109   1.0000      -0.232495        -6.3265
 110   1.0000      -0.066124        -1.7993
 111   0.0000       0.008916         0.2426
 112   0.0000       0.039106         1.0641
 113   0.0000       0.056484         1.5370
 114   0.0000       0.065940         1.7943
 115   0.0000       0.082889         2.2555

                 SPIN DOWN ORBITALS
  NO   OCC          E(Eh)            E(eV)
   0   1.0000     -24.710041      -672.3944
   1   1.0000     -24.709900      -672.3906
   2   1.0000     -24.702091      -672.1781
   3   1.0000     -24.693243      -671.9373
   4   1.0000     -24.693058      -671.9323
   5   1.0000     -24.685068      -671.7148
   6   1.0000     -24.683330      -671.6676
   7   1.0000     -24.678996      -671.5496
   8   1.0000     -24.678841      -671.5454
   9   1.0000     -24.678368      -671.5325
  10   1.0000     -24.678033      -671.5234
  11   1.0000     -24.674922      -671.4388
  12   1.0000     -24.674811      -671.4357
  13   1.0000     -24.672953      -671.3852
  14   1.0000     -24.672113      -671.3623
  15   1.0000     -19.068676      -518.8850
  16   1.0000     -19.067591      -518.8555
  17   1.0000     -19.057104      -518.5702
  18   1.0000     -19.056195      -518.5454
  19   1.0000     -10.408292      -283.2240
  20   1.0000     -10.337359      -281.2938
  21   1.0000     -10.326322      -280.9935
  22   1.0000     -10.320427      -280.8331
  23   1.0000     -10.320376      -280.8317
  24   1.0000     -10.313518      -280.6451
  25   1.0000     -10.311431      -280.5883
  26   1.0000     -10.237842      -278.5858
  27   1.0000      -1.330885       -36.2152
  28   1.0000      -1.279420       -34.8148
  29   1.0000      -1.276541       -34.7364
  30   1.0000      -1.261131       -34.3171
  31   1.0000      -1.254230       -34.1293
  32   1.0000      -1.251596       -34.0577
  33   1.0000      -1.245652       -33.8959
  34   1.0000      -1.241128       -33.7728
  35   1.0000      -1.233680       -33.5701
  36   1.0000      -1.221144       -33.2290
  37   1.0000      -1.216489       -33.1024
  38   1.0000      -1.206716       -32.8364
  39   1.0000      -1.201182       -32.6858
  40   1.0000      -1.198595       -32.6154
  41   1.0000      -1.193578       -32.4789
  42   1.0000      -1.034849       -28.1597
  43   1.0000      -0.970572       -26.4106
  44   1.0000      -0.967986       -26.3402
  45   1.0000      -0.946150       -25.7461
  46   1.0000      -0.784649       -21.3514
  47   1.0000      -0.774719       -21.0812
  48   1.0000      -0.746916       -20.3246
  49   1.0000      -0.717451       -19.5228
  50   1.0000      -0.680944       -18.5294
  51   1.0000      -0.650500       -17.7010
  52   1.0000      -0.623981       -16.9794
  53   1.0000      -0.599046       -16.3009
  54   1.0000      -0.596110       -16.2210
  55   1.0000      -0.593409       -16.1475
  56   1.0000      -0.579491       -15.7687
  57   1.0000      -0.570353       -15.5201
  58   1.0000      -0.569243       -15.4899
  59   1.0000      -0.562405       -15.3038
  60   1.0000      -0.556616       -15.1463
  61   1.0000      -0.547512       -14.8986
  62   1.0000      -0.543770       -14.7967
  63   1.0000      -0.540830       -14.7167
  64   1.0000      -0.533675       -14.5220
  65   1.0000      -0.523945       -14.2573
  66   1.0000      -0.521165       -14.1816
  67   1.0000      -0.513251       -13.9663
  68   1.0000      -0.494962       -13.4686
  69   1.0000      -0.478868       -13.0307
  70   1.0000      -0.467254       -12.7146
  71   1.0000      -0.466443       -12.6925
  72   1.0000      -0.462160       -12.5760
  73   1.0000      -0.447398       -12.1743
  74   1.0000      -0.444481       -12.0949
  75   1.0000      -0.443327       -12.0636
  76   1.0000      -0.441789       -12.0217
  77   1.0000      -0.437813       -11.9135
  78   1.0000      -0.434966       -11.8360
  79   1.0000      -0.432897       -11.7797
  80   1.0000      -0.430004       -11.7010
  81   1.0000      -0.428934       -11.6719
  82   1.0000      -0.425571       -11.5804
  83   1.0000      -0.420122       -11.4321
  84   1.0000      -0.417806       -11.3691
  85   1.0000      -0.410292       -11.1646
  86   1.0000      -0.407715       -11.0945
  87   1.0000      -0.406490       -11.0612
  88   1.0000      -0.405572       -11.0362
  89   1.0000      -0.401920       -10.9368
  90   1.0000      -0.396579       -10.7915
  91   1.0000      -0.394768       -10.7422
  92   1.0000      -0.391299       -10.6478
  93   1.0000      -0.388516       -10.5721
  94   1.0000      -0.384389       -10.4598
  95   1.0000      -0.383895       -10.4463
  96   1.0000      -0.381490       -10.3809
  97   1.0000      -0.376639       -10.2489
  98   1.0000      -0.371200       -10.1009
  99   1.0000      -0.361015        -9.8237
 100   1.0000      -0.352489        -9.5917
 101   1.0000      -0.341118        -9.2823
 102   1.0000      -0.338303        -9.2057
 103   1.0000      -0.328105        -8.9282
 104   1.0000      -0.298272        -8.1164
 105   1.0000      -0.267233        -7.2718
 106   1.0000      -0.264899        -7.2083
 107   1.0000      -0.246382        -6.7044
 108   1.0000      -0.233725        -6.3600
 109   1.0000      -0.231968        -6.3122
 110   0.0000      -0.013646        -0.3713
 111   0.0000       0.023986         0.6527
 112   0.0000       0.044755         1.2179
 113   0.0000       0.061157         1.6642
 114   0.0000       0.079811         2.1718

MULLIKEN ATOMIC CHARGES AND SPIN POPULATIONS
--------------------------------------------
   0 C :    0.446869    0.060448
   1 C :    0.296246    0.109895
   2 C :    0.230339    0.207809
   3 C :    0.241248    0.240304
   4 C :    0.264905    0.167165
   5 C :    0.261247    0.086139
   6 C :    0.316593    0.041699
   7 C :    0.325824    0.021717
   8 F :   -0.176761   -0.000828
   9 F :   -0.176862   -0.000843
  10 F :   -0.185265    0.012748
  11 F :   -0.204184    0.002550
  12 F :   -0.203927    0.002555
  13 F :   -0.225680    0.003903
  14 F :   -0.223875    0.003658
  15 F :   -0.231852    0.004001
  16 F :   -0.228211    0.003538
  17 F :   -0.219629    0.001590
  18 F :   -0.220460    0.001887
  19 F :   -0.211009    0.000606
  20 F :   -0.211715    0.001427
  21 F :   -0.218945    0.000733
  22 F :   -0.223265    0.001367
  23 O :   -0.551563    0.012798
  24 O :   -0.558596    0.013107
  25 O :   -0.749092   -0.000035
  26 H :    0.333601   -0.000000
  27 H :    0.358224   -0.000088
  28 H :    0.357387   -0.000209
  29 O :   -0.743069   -0.000103
  30 H :    0.331475    0.000462
Sum of atomic charges         :   -2.0000000

LOEWDIN ATOMIC CHARGES AND SPIN POPULATIONS
-------------------------------------------
   0 C :   -0.670602    0.051989
   1 C :   -0.491387    0.118872
   2 C :   -0.485373    0.186601
   3 C :   -0.485942    0.203796
   4 C :   -0.483438    0.150812
   5 C :   -0.477040    0.082375
   6 C :   -0.464236    0.045443
   7 C :   -0.655021    0.025324
   8 F :    0.206072    0.000803
   9 F :    0.206055    0.000775
  10 F :    0.172996    0.019885
  11 F :    0.172509    0.006467
  12 F :    0.172991    0.006366
  13 F :    0.142898    0.011526
  14 F :    0.146722    0.011004
  15 F :    0.133383    0.012455
  16 F :    0.139792    0.011827
  17 F :    0.155349    0.007805
  18 F :    0.154614    0.008066
  19 F :    0.179936    0.003279
  20 F :    0.173623    0.004018
  21 F :    0.164048    0.002343
  22 F :    0.155478    0.003065
  23 O :   -0.045928    0.012341
  24 O :   -0.048651    0.012714
  25 O :   -0.372131   -0.000050
  26 H :    0.152640   -0.000004
  27 H :    0.137639   -0.000062
  28 H :    0.134139   -0.000059
  29 O :   -0.366564   -0.000048
  30 H :    0.145427    0.000271

  Mayer bond orders larger than 0.100000
B(  0-C ,  1-C ) :   0.9441 B(  0-C ,  8-F ) :   1.1256 B(  0-C ,  9-F ) :   1.1252
B(  0-C , 10-F ) :   1.0841 B(  1-C ,  2-C ) :   0.9135 B(  1-C , 11-F ) :   1.0373
B(  1-C , 12-F ) :   1.0366 B(  2-C ,  3-C ) :   0.8924 B(  2-C , 13-F ) :   1.0027
B(  2-C , 14-F ) :   1.0052 B(  3-C ,  4-C ) :   0.8939 B(  3-C , 15-F ) :   0.9871
B(  3-C , 16-F ) :   0.9950 B(  4-C ,  5-C ) :   0.8742 B(  4-C , 17-F ) :   1.0181
B(  4-C , 18-F ) :   1.0141 B(  5-C ,  6-C ) :   0.8802 B(  5-C , 19-F ) :   1.0379
B(  5-C , 20-F ) :   1.0479 B(  6-C ,  7-C ) :   0.8971 B(  6-C , 21-F ) :   1.0311
B(  6-C , 22-F ) :   1.0226 B(  7-C , 23-O ) :   1.6842 B(  7-C , 24-O ) :   1.6845
B( 23-O , 28-H ) :   0.1215 B( 24-O , 27-H ) :   0.1160 B( 25-O , 26-H ) :   0.9009
B( 25-O , 27-H ) :   0.8079 B( 28-H , 29-O ) :   0.8118 B( 29-O , 30-H ) :   0.9004

Dispersion correction           -0.010017320
FINAL SINGLE POINT ENERGY     -2105.928189350483

DIPOLE MOMENT
-------------

Method             : SCF
Type of density    : Electron Density
Multiplicity       :   2
Irrep              :   0
Energy             : -2105.9181720302754002 Eh
Relativity type    :
Basis              : AO
                                X                 Y                 Z
Electronic contribution:      2.747188774      37.642794860       7.289649674
Nuclear contribution   :     -2.712831469     -30.582374605      -6.049997181
                        -----------------------------------------
Total Dipole Moment    :      0.034357305       7.060420256       1.239652493
                        -----------------------------------------
Magnitude (a.u.)       :      7.168504231
Magnitude (Debye)      :     18.220889718

Rotational constants in cm-1:             0.013686             0.002983             0.002771
Rotational constants in MHz :           410.299351            89.430203            83.065544

                             ****ORCA TERMINATED NORMALLY****
TOTAL RUN TIME: 0 days 1 hours 10 minutes 46 seconds 375 msec
