                         Program Version 6.0.1  -  RELEASE   -
|  1> !r2scanh def2-TZVP opt d3 TightSCF SlowConv defgrid2
|  2>
|  3> %pal
|  4> nprocs 20
|  5> end
|  6>
|  7> %scf
|  8> MaxIter 1500
|  9> end
| 10>
| 11> %maxcore 8000
| 12>
| 13> !CPCM
| 14> %cpcm smd true
| 15> SMDsolvent "ACETONITRILE"
| 16> end
| 17>
| 18> * xyz -1 1
| 19> 6        6.857280945     27.901753127      3.100719684
| 20> 6        6.154044945     26.704598127      2.411135684
| 21> 6        7.086539945     25.482838127      2.185613684
| 22> 6        6.299616945     24.171731127      1.900070684
| 23> 6        7.185881945     23.070259127      1.248991684
| 24> 6        6.565390945     21.647303127      1.360366684
| 25> 6        7.185681945     20.616666127      0.394672684
| 26> 6        6.843394945     19.121603127      0.784430684
| 27> 9        8.006806945     28.182557127      2.503585684
| 28> 9        7.082780945     27.647576127      4.378925684
| 29> 9        6.067588945     28.966668127      3.018348684
| 30> 9        5.116418945     26.361022127      3.182510684
| 31> 9        5.702795945     27.135986127      1.230360684
| 32> 9        7.887905945     25.777720127      1.156931684
| 33> 9        7.829891945     25.318192127      3.287321684
| 34> 9        5.806494945     23.745652127      3.066652684
| 35> 9        5.287431945     24.474179127      1.076603684
| 36> 9        7.350609945     23.413929127     -0.034316316
| 37> 9        8.377622945     23.098911127      1.865134684
| 38> 9        6.756126945     21.255165127      2.631170684
| 39> 9        5.250981945     21.784657127      1.133608684
| 40> 9        6.706596945     20.903759127     -0.845345316
| 41> 9        8.519170945     20.869305127      0.364163684
| 42> 8        7.813741945     18.363469127      0.789215684
| 43> 8        5.634555945     18.967368127      0.997888684
| 44> 8        2.818390092     18.736599843      1.412612662
| 45> 1        2.716934106     17.791620290      1.243555674
| 46> 1        3.748070901     18.906228277      1.215686974
| 47> *
| 48>
| 49>                          ****END OF INPUT****
 Total Charge           Charge          ....   -1
 Multiplicity           Mult            ....    1
 Number of Electrons    NEL             ....  210
Dispersion correction           -0.009135516
FINAL SINGLE POINT ENERGY     -2029.446388179622
Dispersion correction             ... done (  0.0 sec)
Dispersion correction           -0.009115229
FINAL SINGLE POINT ENERGY     -2029.447972976214
Dispersion correction             ... done (  0.0 sec)
Dispersion correction           -0.009123377
FINAL SINGLE POINT ENERGY     -2029.448401308269
Dispersion correction             ... done (  0.0 sec)
FINAL SINGLE POINT ENERGY     -2029.448503395202
FINAL SINGLE POINT ENERGY     -2029.448614878470
FINAL SINGLE POINT ENERGY     -2029.448641258052
FINAL SINGLE POINT ENERGY     -2029.448841265881
FINAL SINGLE POINT ENERGY     -2029.448897297449
FINAL SINGLE POINT ENERGY     -2029.448990679160
FINAL SINGLE POINT ENERGY     -2029.449109375964
FINAL SINGLE POINT ENERGY     -2029.451852893452
FINAL SINGLE POINT ENERGY     -2029.451857155781
FINAL SINGLE POINT ENERGY     -2029.451862889424
FINAL SINGLE POINT ENERGY     -2029.451870259824
FINAL SINGLE POINT ENERGY     -2029.451881764308
FINAL SINGLE POINT ENERGY     -2029.451891035211
FINAL SINGLE POINT ENERGY     -2029.451897998608
Dispersion correction             ... done (  0.0 sec)
Dispersion correction           -0.009460969
FINAL SINGLE POINT ENERGY     -2029.451900659684
Dispersion correction             ... done (  0.0 sec)
Dispersion correction           -0.009461439
FINAL SINGLE POINT ENERGY     -2029.451901640954
Dispersion correction             ... done (  0.0 sec)
                    ***********************HURRAY********************

CARTESIAN COORDINATES (ANGSTROEM)
---------------------------------
  C      6.831820   27.877865    2.872044
  C      6.061833   26.598632    2.443760
  C      6.994178   25.415713    2.049245
  C      6.269570   24.037018    2.078859
  C      7.025431   22.937417    1.271829
  C      6.594179   21.491759    1.653433
  C      6.968235   20.410999    0.612131
  C      6.914381   18.966161    1.226300
  F      7.783920   28.162216    1.989659
  F      7.380757   27.719436    4.068308
  F      5.980021   28.894403    2.926785
  F      5.274978   26.234001    3.467826
  F      5.293434   26.914487    1.393939
  F      7.459080   25.643213    0.811326
  F      8.031018   25.377506    2.900074
  F      6.153777   23.649479    3.357947
  F      5.042073   24.187533    1.556346
  F      6.785058   23.141419   -0.033308
  F      8.343610   23.073152    1.495460
  F      7.188462   21.180507    2.822795
  F      5.260441   21.487117    1.839767
  F      6.104555   20.520440   -0.431939
  F      8.201760   20.712117    0.136672
  O      8.002437   18.429102    1.421859
  O      5.753942   18.568465    1.447732
  O      3.310426   19.410049    0.522352
  H      3.420232   20.305716    0.192051
  H      4.203945   19.162681    0.838257

 Multiplicity           Mult            ....    1
 Number of Electrons    NEL             ....  210
 Basis Dimension        Dim             ....  818

ORBITAL ENERGIES
----------------

  NO   OCC          E(Eh)            E(eV)
   0   2.0000     -24.732374      -673.0021
   1   2.0000     -24.731870      -672.9884
   2   2.0000     -24.731796      -672.9864
   3   2.0000     -24.731672      -672.9830
   4   2.0000     -24.731148      -672.9687
   5   2.0000     -24.730728      -672.9573
   6   2.0000     -24.730458      -672.9500
   7   2.0000     -24.729479      -672.9233
   8   2.0000     -24.729322      -672.9191
   9   2.0000     -24.724642      -672.7917
  10   2.0000     -24.724033      -672.7751
  11   2.0000     -24.715326      -672.5382
  12   2.0000     -24.714546      -672.5170
  13   2.0000     -24.691923      -671.9014
  14   2.0000     -24.691663      -671.8943
  15   2.0000     -19.072531      -518.9900
  16   2.0000     -19.062825      -518.7258
  17   2.0000     -19.059542      -518.6365
  18   2.0000     -10.440027      -284.0876
  19   2.0000     -10.386920      -282.6425
  20   2.0000     -10.385374      -282.6004
  21   2.0000     -10.384136      -282.5667
  22   2.0000     -10.377968      -282.3989
  23   2.0000     -10.363928      -282.0168
  24   2.0000     -10.329584      -281.0823
  25   2.0000     -10.245208      -278.7863
  26   2.0000      -1.361818       -37.0569
  27   2.0000      -1.338687       -36.4275
  28   2.0000      -1.323511       -36.0146
  29   2.0000      -1.314889       -35.7799
  30   2.0000      -1.311765       -35.6949
  31   2.0000      -1.301838       -35.4248
  32   2.0000      -1.275980       -34.7212
  33   2.0000      -1.273606       -34.6566
  34   2.0000      -1.267334       -34.4859
  35   2.0000      -1.266718       -34.4691
  36   2.0000      -1.260256       -34.2933
  37   2.0000      -1.256559       -34.1927
  38   2.0000      -1.253380       -34.1062
  39   2.0000      -1.243424       -33.8353
  40   2.0000      -1.217438       -33.1282
  41   2.0000      -1.041835       -28.3498
  42   2.0000      -0.974082       -26.5061
  43   2.0000      -0.955765       -26.0077
  44   2.0000      -0.845977       -23.0202
  45   2.0000      -0.824102       -22.4250
  46   2.0000      -0.794335       -21.6150
  47   2.0000      -0.755622       -20.5615
  48   2.0000      -0.712352       -19.3841
  49   2.0000      -0.682402       -18.5691
  50   2.0000      -0.665541       -18.1103
  51   2.0000      -0.642247       -17.4764
  52   2.0000      -0.637642       -17.3511
  53   2.0000      -0.629388       -17.1265
  54   2.0000      -0.621281       -16.9059
  55   2.0000      -0.617272       -16.7968
  56   2.0000      -0.615695       -16.7539
  57   2.0000      -0.603000       -16.4085
  58   2.0000      -0.598871       -16.2961
  59   2.0000      -0.595015       -16.1912
  60   2.0000      -0.587790       -15.9946
  61   2.0000      -0.576235       -15.6801
  62   2.0000      -0.574298       -15.6274
  63   2.0000      -0.568066       -15.4579
  64   2.0000      -0.561372       -15.2757
  65   2.0000      -0.545580       -14.8460
  66   2.0000      -0.504618       -13.7314
  67   2.0000      -0.501126       -13.6363
  68   2.0000      -0.495207       -13.4753
  69   2.0000      -0.494902       -13.4670
  70   2.0000      -0.491154       -13.3650
  71   2.0000      -0.486791       -13.2463
  72   2.0000      -0.483936       -13.1686
  73   2.0000      -0.480333       -13.0705
  74   2.0000      -0.473525       -12.8853
  75   2.0000      -0.470062       -12.7910
  76   2.0000      -0.467623       -12.7247
  77   2.0000      -0.464556       -12.6412
  78   2.0000      -0.458975       -12.4894
  79   2.0000      -0.457295       -12.4436
  80   2.0000      -0.450808       -12.2671
  81   2.0000      -0.449457       -12.2303
  82   2.0000      -0.446821       -12.1586
  83   2.0000      -0.439155       -11.9500
  84   2.0000      -0.438111       -11.9216
  85   2.0000      -0.435556       -11.8521
  86   2.0000      -0.431387       -11.7386
  87   2.0000      -0.430285       -11.7086
  88   2.0000      -0.426744       -11.6123
  89   2.0000      -0.426506       -11.6058
  90   2.0000      -0.422535       -11.4978
  91   2.0000      -0.421562       -11.4713
  92   2.0000      -0.414237       -11.2719
  93   2.0000      -0.406224       -11.0539
  94   2.0000      -0.403949       -10.9920
  95   2.0000      -0.400081       -10.8868
  96   2.0000      -0.388992       -10.5850
  97   2.0000      -0.386054       -10.5051
  98   2.0000      -0.360024        -9.7967
  99   2.0000      -0.344458        -9.3732
 100   2.0000      -0.326688        -8.8896
 101   2.0000      -0.270358        -7.3568
 102   2.0000      -0.252834        -6.8800
 103   2.0000      -0.239081        -6.5057
 104   2.0000      -0.234038        -6.3685
 105   0.0000      -0.017062        -0.4643
 106   0.0000      -0.001601        -0.0436
 107   0.0000       0.016344         0.4447
 108   0.0000       0.044579         1.2131
 109   0.0000       0.051081         1.3900

MULLIKEN ATOMIC CHARGES
-----------------------
   0 C :    0.471206
   1 C :    0.328974
   2 C :    0.300021
   3 C :    0.325384
   4 C :    0.326023
   5 C :    0.295970
   6 C :    0.318580
   7 C :    0.276128
   8 F :   -0.155988
   9 F :   -0.153969
  10 F :   -0.153258
  11 F :   -0.163032
  12 F :   -0.159611
  13 F :   -0.163703
  14 F :   -0.163759
  15 F :   -0.164872
  16 F :   -0.165461
  17 F :   -0.168598
  18 F :   -0.170154
  19 F :   -0.181193
  20 F :   -0.182182
  21 F :   -0.208670
  22 F :   -0.202108
  23 O :   -0.486968
  24 O :   -0.551057
  25 O :   -0.741268
  26 H :    0.334702
  27 H :    0.358863
Sum of atomic charges:   -1.0000000

LOEWDIN ATOMIC CHARGES
----------------------
   0 C :   -0.679748
   1 C :   -0.479010
   2 C :   -0.472526
   3 C :   -0.470800
   4 C :   -0.469714
   5 C :   -0.469996
   6 C :   -0.455229
   7 C :   -0.672366
   8 F :    0.230676
   9 F :    0.232944
  10 F :    0.232128
  11 F :    0.230322
  12 F :    0.232325
  13 F :    0.232369
  14 F :    0.231733
  15 F :    0.231482
  16 F :    0.229949
  17 F :    0.226647
  18 F :    0.224933
  19 F :    0.215720
  20 F :    0.218207
  21 F :    0.171660
  22 F :    0.180373
  23 O :   -0.022513
  24 O :   -0.048470
  25 O :   -0.363127
  26 H :    0.147769
  27 H :    0.134263

  Mayer bond orders larger than 0.100000
B(  0-C ,  1-C ) :   0.9538 B(  0-C ,  8-F ) :   1.1278 B(  0-C ,  9-F ) :   1.1426
B(  0-C , 10-F ) :   1.1344 B(  1-C ,  2-C ) :   0.9356 B(  1-C , 11-F ) :   1.0829
B(  1-C , 12-F ) :   1.0989 B(  2-C ,  3-C ) :   0.9288 B(  2-C , 13-F ) :   1.0809
B(  2-C , 14-F ) :   1.0892 B(  3-C ,  4-C ) :   0.9360 B(  3-C , 15-F ) :   1.0807
B(  3-C , 16-F ) :   1.0794 B(  4-C ,  5-C ) :   0.9232 B(  4-C , 17-F ) :   1.0826
B(  4-C , 18-F ) :   1.0720 B(  5-C ,  6-C ) :   0.9262 B(  5-C , 19-F ) :   1.0696
B(  5-C , 20-F ) :   1.0575 B(  6-C ,  7-C ) :   0.8617 B(  6-C , 21-F ) :   1.0260
B(  6-C , 22-F ) :   1.0466 B(  7-C , 23-O ) :   1.8940 B(  7-C , 24-O ) :   1.6534
B( 24-O , 27-H ) :   0.1106 B( 25-O , 26-H ) :   0.8998 B( 25-O , 27-H ) :   0.8188

Dispersion correction           -0.009461322
FINAL SINGLE POINT ENERGY     -2029.451901837997

DIPOLE MOMENT
-------------

Method             : SCF
Type of density    : Electron Density
Multiplicity       :   1
Irrep              :   0
Energy             : -2029.4424405164265863 Eh
Relativity type    :
Basis              : AO
                                X                 Y                 Z
Electronic contribution:      7.541622279      28.608630892       4.929250407
Nuclear contribution   :     -6.867281227     -19.577822650      -3.988282980
                        -----------------------------------------
Total Dipole Moment    :      0.674341051       9.030808242       0.940967426
                        -----------------------------------------
Magnitude (a.u.)       :      9.104704995
Magnitude (Debye)      :     23.142320948

Rotational constants in cm-1:             0.017133             0.003500             0.003341
Rotational constants in MHz :           513.628341           104.933590           100.175498

                             ****ORCA TERMINATED NORMALLY****
TOTAL RUN TIME: 0 days 1 hours 28 minutes 21 seconds 185 msec
