                         Program Version 6.0.1  -  RELEASE   -
|  1> !B3LYP def2-TZVP freq d3 TightSCF SlowConv defgrid2
|  2>
|  3> %pal
|  4> nprocs 20
|  5> end
|  6>
|  7> %scf
|  8> MaxIter 1500
|  9> end
| 10>
| 11> %maxcore 8000
| 12>
| 13> !CPCM
| 14> %cpcm smd true
| 15> SMDsolvent "ACETONITRILE"
| 16> end
| 17>
| 18> * xyz -1 1
| 19> 6        6.886647000     27.972150000      2.963062000
| 20> 6        6.116906000     26.696167000      2.490808000
| 21> 6        7.044147000     25.489399000      2.120530000
| 22> 6        6.286233000     24.115682000      2.069377000
| 23> 6        7.066810000     23.007812000      1.277120000
| 24> 6        6.585285000     21.551276000      1.593689000
| 25> 6        7.016630000     20.475962000      0.554650000
| 26> 6        6.908080000     19.011070000      1.136803000
| 27> 9        7.853985000     28.285659000      2.098119000
| 28> 9        7.423943000     27.785901000      4.168052000
| 29> 9        6.026967000     28.990445000      3.033762000
| 30> 9        5.279885000     26.336129000      3.484422000
| 31> 9        5.390588000     27.033476000      1.409518000
| 32> 9        7.597244000     25.740414000      0.917167000
| 33> 9        8.028263000     25.399591000      3.037026000
| 34> 9        6.087381000     23.701585000      3.336619000
| 35> 9        5.086909000     24.301075000      1.481696000
| 36> 9        6.909535000     23.251543000     -0.040666000
| 37> 9        8.378549000     23.107220000      1.580283000
| 38> 9        7.095450000     21.203291000      2.800702000
| 39> 9        5.237545000     21.562237000      1.691890000
| 40> 9        6.225118000     20.612306000     -0.549446000
| 41> 9        8.288616000     20.767491000      0.162204000
| 42> 8        7.979656000     18.446221000      1.362146000
| 43> 8        5.731397000     18.626637000      1.301824000
| 44> 8        3.184827000     19.327843000      0.484795000
| 45> 1        2.824612000     18.444105000      0.345204000
| 46> 1        4.117543000     19.174630000      0.749264000
| 47> *
| 48>
| 49>                          ****END OF INPUT****

CARTESIAN COORDINATES (ANGSTROEM)
---------------------------------
  C      6.886647   27.972150    2.963062
  C      6.116906   26.696167    2.490808
  C      7.044147   25.489399    2.120530
  C      6.286233   24.115682    2.069377
  C      7.066810   23.007812    1.277120
  C      6.585285   21.551276    1.593689
  C      7.016630   20.475962    0.554650
  C      6.908080   19.011070    1.136803
  F      7.853985   28.285659    2.098119
  F      7.423943   27.785901    4.168052
  F      6.026967   28.990445    3.033762
  F      5.279885   26.336129    3.484422
  F      5.390588   27.033476    1.409518
  F      7.597244   25.740414    0.917167
  F      8.028263   25.399591    3.037026
  F      6.087381   23.701585    3.336619
  F      5.086909   24.301075    1.481696
  F      6.909535   23.251543   -0.040666
  F      8.378549   23.107220    1.580283
  F      7.095450   21.203291    2.800702
  F      5.237545   21.562237    1.691890
  F      6.225118   20.612306   -0.549446
  F      8.288616   20.767491    0.162204
  O      7.979656   18.446221    1.362146
  O      5.731397   18.626637    1.301824
  O      3.184827   19.327843    0.484795
  H      2.824612   18.444105    0.345204
  H      4.117543   19.174630    0.749264

 Total Charge           Charge          ....   -1
 Multiplicity           Mult            ....    1
 Number of Electrons    NEL             ....  210
 Basis Dimension        Dim             ....  818

ORBITAL ENERGIES
----------------

  NO   OCC          E(Eh)            E(eV)
   0   2.0000     -24.744791      -673.3400
   1   2.0000     -24.743672      -673.3095
   2   2.0000     -24.743670      -673.3095
   3   2.0000     -24.743265      -673.2985
   4   2.0000     -24.743131      -673.2948
   5   2.0000     -24.743111      -673.2943
   6   2.0000     -24.742264      -673.2712
   7   2.0000     -24.740781      -673.2309
   8   2.0000     -24.740483      -673.2228
   9   2.0000     -24.735786      -673.0950
  10   2.0000     -24.735282      -673.0812
  11   2.0000     -24.725489      -672.8148
  12   2.0000     -24.725199      -672.8069
  13   2.0000     -24.702246      -672.1823
  14   2.0000     -24.702162      -672.1800
  15   2.0000     -19.086086      -519.3588
  16   2.0000     -19.073757      -519.0233
  17   2.0000     -19.070502      -518.9348
  18   2.0000     -10.461150      -284.6624
  19   2.0000     -10.408248      -283.2228
  20   2.0000     -10.407174      -283.1936
  21   2.0000     -10.405307      -283.1428
  22   2.0000     -10.398775      -282.9651
  23   2.0000     -10.384257      -282.5700
  24   2.0000     -10.349246      -281.6173
  25   2.0000     -10.264703      -279.3168
  26   2.0000      -1.353709       -36.8363
  27   2.0000      -1.330599       -36.2074
  28   2.0000      -1.315719       -35.8025
  29   2.0000      -1.307549       -35.5802
  30   2.0000      -1.304182       -35.4886
  31   2.0000      -1.293721       -35.2039
  32   2.0000      -1.267546       -34.4917
  33   2.0000      -1.267045       -34.4780
  34   2.0000      -1.260731       -34.3062
  35   2.0000      -1.260148       -34.2904
  36   2.0000      -1.253621       -34.1128
  37   2.0000      -1.250127       -34.0177
  38   2.0000      -1.246442       -33.9174
  39   2.0000      -1.235879       -33.6300
  40   2.0000      -1.209611       -32.9152
  41   2.0000      -1.036231       -28.1973
  42   2.0000      -0.971337       -26.4314
  43   2.0000      -0.952069       -25.9071
  44   2.0000      -0.847089       -23.0505
  45   2.0000      -0.825929       -22.4747
  46   2.0000      -0.797222       -21.6935
  47   2.0000      -0.760036       -20.6816
  48   2.0000      -0.718569       -19.5532
  49   2.0000      -0.690171       -18.7805
  50   2.0000      -0.672503       -18.2997
  51   2.0000      -0.651240       -17.7211
  52   2.0000      -0.646329       -17.5875
  53   2.0000      -0.638330       -17.3699
  54   2.0000      -0.630348       -17.1527
  55   2.0000      -0.626445       -17.0464
  56   2.0000      -0.624378       -16.9902
  57   2.0000      -0.611981       -16.6529
  58   2.0000      -0.608945       -16.5702
  59   2.0000      -0.604982       -16.4624
  60   2.0000      -0.597161       -16.2496
  61   2.0000      -0.585903       -15.9432
  62   2.0000      -0.584403       -15.9024
  63   2.0000      -0.577963       -15.7272
  64   2.0000      -0.570155       -15.5147
  65   2.0000      -0.554436       -15.0870
  66   2.0000      -0.517513       -14.0822
  67   2.0000      -0.513903       -13.9840
  68   2.0000      -0.508379       -13.8337
  69   2.0000      -0.505637       -13.7591
  70   2.0000      -0.503353       -13.6969
  71   2.0000      -0.500569       -13.6212
  72   2.0000      -0.497164       -13.5285
  73   2.0000      -0.493286       -13.4230
  74   2.0000      -0.487589       -13.2680
  75   2.0000      -0.483593       -13.1592
  76   2.0000      -0.480819       -13.0838
  77   2.0000      -0.477834       -13.0025
  78   2.0000      -0.471744       -12.8368
  79   2.0000      -0.469944       -12.7878
  80   2.0000      -0.463626       -12.6159
  81   2.0000      -0.461917       -12.5694
  82   2.0000      -0.460184       -12.5222
  83   2.0000      -0.453479       -12.3398
  84   2.0000      -0.452601       -12.3159
  85   2.0000      -0.449374       -12.2281
  86   2.0000      -0.445049       -12.1104
  87   2.0000      -0.444169       -12.0864
  88   2.0000      -0.441384       -12.0107
  89   2.0000      -0.439866       -11.9694
  90   2.0000      -0.435586       -11.8529
  91   2.0000      -0.435092       -11.8395
  92   2.0000      -0.427732       -11.6392
  93   2.0000      -0.419494       -11.4150
  94   2.0000      -0.416615       -11.3367
  95   2.0000      -0.412217       -11.2170
  96   2.0000      -0.403684       -10.9848
  97   2.0000      -0.394725       -10.7410
  98   2.0000      -0.375079       -10.2064
  99   2.0000      -0.353802        -9.6274
 100   2.0000      -0.344198        -9.3661
 101   2.0000      -0.283710        -7.7201
 102   2.0000      -0.261084        -7.1045
 103   2.0000      -0.251627        -6.8471
 104   2.0000      -0.246613        -6.7107
 105   0.0000      -0.009925        -0.2701
 106   0.0000       0.004602         0.1252
 107   0.0000       0.023552         0.6409
 108   0.0000       0.049019         1.3339
 109   0.0000       0.055379         1.5069

MULLIKEN ATOMIC CHARGES
-----------------------
   0 C :    0.476149
   1 C :    0.323800
   2 C :    0.312331
   3 C :    0.332182
   4 C :    0.334971
   5 C :    0.310450
   6 C :    0.342649
   7 C :    0.188597
   8 F :   -0.155053
   9 F :   -0.152605
  10 F :   -0.152602
  11 F :   -0.165619
  12 F :   -0.162673
  13 F :   -0.168449
  14 F :   -0.167792
  15 F :   -0.169502
  16 F :   -0.169847
  17 F :   -0.173972
  18 F :   -0.175153
  19 F :   -0.188396
  20 F :   -0.181872
  21 F :   -0.212749
  22 F :   -0.206954
  23 O :   -0.450105
  24 O :   -0.517607
  25 O :   -0.729885
  26 H :    0.325360
  27 H :    0.354345
Sum of atomic charges:   -1.0000000

LOEWDIN ATOMIC CHARGES
----------------------
   0 C :   -0.664204
   1 C :   -0.463253
   2 C :   -0.456852
   3 C :   -0.454582
   4 C :   -0.453695
   5 C :   -0.453984
   6 C :   -0.439874
   7 C :   -0.669400
   8 F :    0.225325
   9 F :    0.226986
  10 F :    0.225673
  11 F :    0.223447
  12 F :    0.224685
  13 F :    0.224673
  14 F :    0.224433
  15 F :    0.223324
  16 F :    0.222517
  17 F :    0.218247
  18 F :    0.217269
  19 F :    0.205396
  20 F :    0.214035
  21 F :    0.163977
  22 F :    0.171667
  23 O :   -0.026030
  24 O :   -0.053170
  25 O :   -0.370565
  26 H :    0.155038
  27 H :    0.138915

  Mayer bond orders larger than 0.100000
B(  0-C ,  1-C ) :   0.9698 B(  0-C ,  8-F ) :   1.1439 B(  0-C ,  9-F ) :   1.1556
B(  0-C , 10-F ) :   1.1483 B(  1-C ,  2-C ) :   0.9269 B(  1-C , 11-F ) :   1.0874
B(  1-C , 12-F ) :   1.0980 B(  2-C ,  3-C ) :   0.9335 B(  2-C , 13-F ) :   1.0820
B(  2-C , 14-F ) :   1.0872 B(  3-C ,  4-C ) :   0.9401 B(  3-C , 15-F ) :   1.0802
B(  3-C , 16-F ) :   1.0794 B(  4-C ,  5-C ) :   0.9276 B(  4-C , 17-F ) :   1.0789
B(  4-C , 18-F ) :   1.0712 B(  5-C ,  6-C ) :   0.9131 B(  5-C , 19-F ) :   1.0610
B(  5-C , 20-F ) :   1.0732 B(  6-C ,  7-C ) :   0.8738 B(  6-C , 21-F ) :   1.0320
B(  6-C , 22-F ) :   1.0528 B(  7-C , 23-O ) :   1.9381 B(  7-C , 24-O ) :   1.7017
B( 24-O , 27-H ) :   0.1093 B( 25-O , 26-H ) :   0.9027 B( 25-O , 27-H ) :   0.8224

Dispersion correction           -0.047215558
FINAL SINGLE POINT ENERGY     -2029.639844563425

DIPOLE MOMENT
-------------

Method             : SCF
Type of density    : Electron Density
Multiplicity       :   1
Irrep              :   0
Energy             : -2029.5926290051324941 Eh
Relativity type    :
Basis              : AO
                                X                 Y                 Z
Electronic contribution:      8.167724406      29.481299744       5.371700475
Nuclear contribution   :     -7.770929935     -21.644202274      -4.161977187
                        -----------------------------------------
Total Dipole Moment    :      0.396794472       7.837097470       1.209723288
                        -----------------------------------------
Magnitude (a.u.)       :      7.939834573
Magnitude (Debye)      :     20.181455637

VIBRATIONAL FREQUENCIES
-----------------------

Scaling factor for frequencies =  1.000000000  (already applied!)

     0:       0.00 cm**-1
     1:       0.00 cm**-1
     2:       0.00 cm**-1
     3:       0.00 cm**-1
     4:       0.00 cm**-1
     5:       0.00 cm**-1
     6:     -15.27 cm**-1  ***imaginary mode***
     7:      20.67 cm**-1
     8:      30.97 cm**-1
     9:      35.39 cm**-1
    10:      36.63 cm**-1
    11:      44.21 cm**-1
    12:      54.55 cm**-1
    13:      57.28 cm**-1
    14:      67.86 cm**-1
    15:      70.88 cm**-1
    16:      73.68 cm**-1
    17:     117.29 cm**-1
    18:     133.97 cm**-1
    19:     162.52 cm**-1
    20:     180.04 cm**-1
    21:     192.67 cm**-1
    22:     203.25 cm**-1
    23:     204.53 cm**-1
    24:     213.16 cm**-1
    25:     233.84 cm**-1
    26:     245.44 cm**-1
    27:     255.78 cm**-1
    28:     258.14 cm**-1
    29:     266.69 cm**-1
    30:     286.78 cm**-1
    31:     303.09 cm**-1
    32:     311.86 cm**-1
    33:     333.64 cm**-1
    34:     347.20 cm**-1
    35:     358.66 cm**-1
    36:     364.00 cm**-1
    37:     368.93 cm**-1
    38:     369.52 cm**-1
    39:     377.69 cm**-1
    40:     398.02 cm**-1
    41:     413.86 cm**-1
    42:     463.42 cm**-1
    43:     508.37 cm**-1
    44:     524.62 cm**-1
    45:     538.91 cm**-1
    46:     554.55 cm**-1
    47:     555.71 cm**-1
    48:     577.52 cm**-1
    49:     595.97 cm**-1
    50:     610.18 cm**-1
    51:     640.12 cm**-1
    52:     660.60 cm**-1
    53:     682.56 cm**-1
    54:     689.23 cm**-1
    55:     719.26 cm**-1
    56:     726.82 cm**-1
    57:     768.57 cm**-1
    58:     802.22 cm**-1
    59:     873.66 cm**-1
    60:    1000.18 cm**-1
    61:    1090.11 cm**-1
    62:    1099.89 cm**-1
    63:    1116.41 cm**-1
    64:    1118.34 cm**-1
    65:    1128.22 cm**-1
    66:    1136.91 cm**-1
    67:    1146.85 cm**-1
    68:    1148.65 cm**-1
    69:    1155.38 cm**-1
    70:    1160.97 cm**-1
    71:    1170.11 cm**-1
    72:    1184.11 cm**-1
    73:    1194.07 cm**-1
    74:    1216.70 cm**-1
    75:    1249.33 cm**-1
    76:    1266.27 cm**-1
    77:    1288.97 cm**-1
    78:    1342.14 cm**-1
    79:    1381.73 cm**-1
    80:    1654.82 cm**-1
    81:    1725.23 cm**-1
    82:    3460.88 cm**-1
    83:    3803.31 cm**-1

IR SPECTRUM
-----------

 Mode   freq       eps      Int      T**2         TX        TY        TZ
       cm**-1   L/(mol*cm) km/mol    a.u.
----------------------------------------------------------------------------
  7:     20.67   0.000062    0.31  0.000931  ( 0.018106 -0.008396  0.023075)
  8:     30.97   0.012223   61.77  0.123164  ( 0.067656  0.017672 -0.343910)
  9:     35.39   0.000392    1.98  0.003454  ( 0.012343  0.009638 -0.056644)
 10:     36.63   0.000162    0.82  0.001378  (-0.013615 -0.008996 -0.033349)
 11:     44.21   0.003963   20.03  0.027973  (-0.101354 -0.020290  0.131488)
 12:     54.55   0.000362    1.83  0.002071  ( 0.042683  0.015777 -0.000496)
 13:     57.28   0.002194   11.09  0.011956  (-0.039359 -0.007450  0.101740)
 14:     67.86   0.000543    2.75  0.002498  (-0.041368 -0.011746  0.025475)
 15:     70.88   0.000126    0.63  0.000553  ( 0.021742  0.002102  0.008720)
 16:     73.68   0.000490    2.47  0.002074  ( 0.007762 -0.011136 -0.043472)
 17:    117.29   0.000657    3.32  0.001747  (-0.002979  0.026836  0.031903)
 18:    133.97   0.000230    1.16  0.000535  (-0.004043  0.022654 -0.002354)
 19:    162.52   0.000402    2.03  0.000772  ( 0.004209  0.014925  0.023046)
 20:    180.04   0.002888   14.60  0.005007  ( 0.070676  0.003402 -0.000085)
 21:    192.67   0.003555   17.96  0.005758  (-0.045732  0.013125 -0.059109)
 22:    203.25   0.000170    0.86  0.000262  ( 0.013060  0.003901  0.008705)
 23:    204.53   0.000192    0.97  0.000293  (-0.016343  0.004021  0.003098)
 24:    213.16   0.001257    6.35  0.001840  (-0.038324 -0.007778  0.017633)
 25:    233.84   0.000338    1.71  0.000451  ( 0.020127  0.005841  0.003467)
 26:    245.44   0.000009    0.04  0.000011  (-0.000155  0.003015 -0.001337)
 27:    255.78   0.000239    1.21  0.000292  ( 0.015701 -0.005657  0.003674)
 28:    258.14   0.000451    2.28  0.000545  ( 0.023060  0.003385  0.001179)
 29:    266.69   0.001841    9.30  0.002154  ( 0.042219  0.014210  0.013039)
 30:    286.78   0.001219    6.16  0.001326  ( 0.012158 -0.032988 -0.009488)
 31:    303.09   0.000036    0.18  0.000037  ( 0.000949 -0.003392  0.005005)
 32:    311.86   0.000211    1.07  0.000211  (-0.013223  0.002206  0.005582)
 33:    333.64   0.000174    0.88  0.000163  ( 0.005868  0.007827  0.008177)
 34:    347.20   0.000455    2.30  0.000409  (-0.007235 -0.006580 -0.017707)
 35:    358.66   0.000136    0.69  0.000118  ( 0.001658  0.003415 -0.010198)
 36:    364.00   0.000695    3.51  0.000596  ( 0.015585  0.017643  0.006461)
 37:    368.93   0.002055   10.38  0.001738  (-0.027705 -0.028132 -0.013381)
 38:    369.52   0.001705    8.61  0.001440  ( 0.029929  0.020532  0.011057)
 39:    377.69   0.000094    0.48  0.000078  ( 0.002127 -0.008502 -0.001128)
 40:    398.02   0.010613   53.63  0.008321  ( 0.081823  0.027562  0.029428)
 41:    413.86   0.006148   31.07  0.004636  ( 0.060782  0.024989  0.017805)
 42:    463.42   0.001401    7.08  0.000943  (-0.013130 -0.011721 -0.025169)
 43:    508.37   0.008143   41.15  0.004998  (-0.001761  0.065517  0.026511)
 44:    524.62   0.008132   41.10  0.004837  (-0.032741  0.058670  0.017978)
 45:    538.91   0.009387   47.44  0.005436  ( 0.005088 -0.056787 -0.046745)
 46:    554.55   0.011962   60.45  0.006732  ( 0.033729  0.074652 -0.004576)
 47:    555.71   0.001555    7.86  0.000873  (-0.020851  0.008654  0.019073)
 48:    577.52   0.001090    5.51  0.000589  (-0.016381  0.011781 -0.013484)
 49:    595.97   0.003033   15.33  0.001588  (-0.000601 -0.037158 -0.014384)
 50:    610.18   0.000286    1.45  0.000146  (-0.010465  0.002603  0.005490)
 51:    640.12   0.026079  131.79  0.012714  ( 0.006005  0.108631  0.029614)
 52:    660.60   0.022080  111.59  0.010431  (-0.009993  0.100170  0.017229)
 53:    682.56   0.000863    4.36  0.000395  ( 0.003666  0.018818  0.005210)
 54:    689.23   0.025680  129.77  0.011627  ( 0.038266  0.002617 -0.100777)
 55:    719.26   0.000499    2.52  0.000217  (-0.006457  0.011693 -0.006180)
 56:    726.82   0.004584   23.17  0.001968  (-0.001264  0.041067  0.016739)
 57:    768.57   0.001039    5.25  0.000422  ( 0.012408 -0.016251  0.001905)
 58:    802.22   0.019431   98.20  0.007559  (-0.006436 -0.071366  0.049235)
 59:    873.66   0.004125   20.85  0.001473  (-0.005619  0.037922  0.001958)
 60:   1000.18   0.009578   48.41  0.002989  ( 0.001081 -0.044421 -0.031846)
 61:   1090.11   0.017063   86.23  0.004885  ( 0.049161  0.045336 -0.020309)
 62:   1099.89   0.048149  243.32  0.013661  ( 0.089045 -0.007977  0.075287)
 63:   1116.41   0.022568  114.05  0.006308  ( 0.020651  0.002211 -0.076661)
 64:   1118.34   0.006699   33.85  0.001869  ( 0.005101  0.007149 -0.042334)
 65:   1128.22   0.048962  247.43  0.013543  ( 0.094574  0.039208 -0.055329)
 66:   1136.91   0.117903  595.83  0.032362  (-0.178788 -0.013134  0.014996)
 67:   1146.85   0.060312  304.79  0.016411  (-0.066520  0.008908 -0.109119)
 68:   1148.65   0.008135   41.11  0.002210  ( 0.045815  0.006322 -0.008434)
 69:   1155.38   0.128967  651.75  0.034833  ( 0.058198 -0.041334  0.172447)
 70:   1160.97   0.079404  401.28  0.021343  ( 0.128227 -0.025325 -0.065269)
 71:   1170.11   0.072303  365.39  0.019283  ( 0.044293 -0.053405  0.120287)
 72:   1184.11   0.044344  224.10  0.011686  ( 0.012098  0.032678 -0.102334)
 73:   1194.07   0.008718   44.06  0.002279  ( 0.035297 -0.011482  0.030013)
 74:   1216.70   0.009813   49.59  0.002517  (-0.016030  0.044722 -0.016121)
 75:   1249.33   0.003336   16.86  0.000833  ( 0.020961 -0.019200  0.005033)
 76:   1266.27   0.003162   15.98  0.000779  ( 0.021490 -0.017789 -0.001031)
 77:   1288.97   0.007966   40.26  0.001929  ( 0.021184 -0.020873 -0.032313)
 78:   1342.14   0.040032  202.30  0.009308  (-0.023299 -0.093409 -0.006308)
 79:   1381.73   0.032045  161.94  0.007237  (-0.032183 -0.077914  0.011448)
 80:   1654.82   0.023406  118.29  0.004414  ( 0.033309 -0.056938  0.007904)
 81:   1725.23   0.191523  967.88  0.034643  ( 0.184336 -0.023314  0.010960)
 82:   3460.88   0.207035  1046.27  0.018668  ( 0.133013 -0.002457  0.031139)
 83:   3803.31   0.016955   85.68  0.001391  ( 0.029397  0.021458  0.008158)

--------------------------
THERMOCHEMISTRY AT 298.15K
--------------------------

Temperature         ...   298.15 K
Pressure            ...     1.00 atm
Total Mass          ...   431.07 AMU
Quasi RRHO          ...     True
Cut-Off Frequency   ...     1.00 cm^-1

Throughout the following assumptions are being made:
  (1) The electronic state is orbitally nondegenerate
  (2) There are no thermally accessible electronically excited states
  (3) Hindered rotations indicated by low frequency modes are not
      treated as such but are treated as vibrations and this may
      cause some error
  (4) All equations used are the standard statistical mechanics
      equations for an ideal gas
  (5) All vibrations are strictly harmonic

freq.      20.67  E(vib)   ...       0.56
freq.      30.97  E(vib)   ...       0.55
freq.      35.39  E(vib)   ...       0.54
freq.      36.63  E(vib)   ...       0.54
freq.      44.21  E(vib)   ...       0.53
freq.      54.55  E(vib)   ...       0.52
freq.      57.28  E(vib)   ...       0.51
freq.      67.86  E(vib)   ...       0.50
freq.      70.88  E(vib)   ...       0.50
freq.      73.68  E(vib)   ...       0.49
freq.     117.29  E(vib)   ...       0.44
freq.     133.97  E(vib)   ...       0.42
freq.     162.52  E(vib)   ...       0.39
freq.     180.04  E(vib)   ...       0.37
freq.     192.67  E(vib)   ...       0.36
freq.     203.25  E(vib)   ...       0.35
freq.     204.53  E(vib)   ...       0.35
freq.     213.16  E(vib)   ...       0.34
freq.     233.84  E(vib)   ...       0.32
freq.     245.44  E(vib)   ...       0.31
freq.     255.78  E(vib)   ...       0.30
freq.     258.14  E(vib)   ...       0.30
freq.     266.69  E(vib)   ...       0.29
freq.     286.78  E(vib)   ...       0.27
freq.     303.09  E(vib)   ...       0.26
freq.     311.86  E(vib)   ...       0.25
freq.     333.64  E(vib)   ...       0.24
freq.     347.20  E(vib)   ...       0.23
freq.     358.66  E(vib)   ...       0.22
freq.     364.00  E(vib)   ...       0.22
freq.     368.93  E(vib)   ...       0.21
freq.     369.52  E(vib)   ...       0.21
freq.     377.69  E(vib)   ...       0.21
freq.     398.02  E(vib)   ...       0.20
freq.     413.86  E(vib)   ...       0.19
freq.     463.42  E(vib)   ...       0.16
freq.     508.37  E(vib)   ...       0.14
freq.     524.62  E(vib)   ...       0.13
freq.     538.91  E(vib)   ...       0.12
freq.     554.55  E(vib)   ...       0.12
freq.     555.71  E(vib)   ...       0.12
freq.     577.52  E(vib)   ...       0.11
freq.     595.97  E(vib)   ...       0.10
freq.     610.18  E(vib)   ...       0.10
freq.     640.12  E(vib)   ...       0.09
freq.     660.60  E(vib)   ...       0.08
freq.     682.56  E(vib)   ...       0.08
freq.     689.23  E(vib)   ...       0.07
freq.     719.26  E(vib)   ...       0.07
freq.     726.82  E(vib)   ...       0.06
freq.     768.57  E(vib)   ...       0.06
freq.     802.22  E(vib)   ...       0.05
freq.     873.66  E(vib)   ...       0.04
freq.    1000.18  E(vib)   ...       0.02
freq.    1090.11  E(vib)   ...       0.02
freq.    1099.89  E(vib)   ...       0.02
freq.    1116.41  E(vib)   ...       0.01
freq.    1118.34  E(vib)   ...       0.01
freq.    1128.22  E(vib)   ...       0.01
freq.    1136.91  E(vib)   ...       0.01
freq.    1146.85  E(vib)   ...       0.01
freq.    1148.65  E(vib)   ...       0.01
freq.    1155.38  E(vib)   ...       0.01
freq.    1160.97  E(vib)   ...       0.01
freq.    1170.11  E(vib)   ...       0.01
freq.    1184.11  E(vib)   ...       0.01
freq.    1194.07  E(vib)   ...       0.01
freq.    1216.70  E(vib)   ...       0.01
freq.    1249.33  E(vib)   ...       0.01
freq.    1266.27  E(vib)   ...       0.01
freq.    1288.97  E(vib)   ...       0.01
freq.    1342.14  E(vib)   ...       0.01
freq.    1381.73  E(vib)   ...       0.01
freq.    1654.82  E(vib)   ...       0.00
freq.    1725.23  E(vib)   ...       0.00
freq.    3460.88  E(vib)   ...       0.00
freq.    3803.31  E(vib)   ...       0.00

------------
INNER ENERGY
------------

The inner energy is: U= E(el) + E(ZPE) + E(vib) + E(rot) + E(trans)
    E(el)   - is the total energy from the electronic structure calculation
              = E(kin-el) + E(nuc-el) + E(el-el) + E(nuc-nuc)
    E(ZPE)  - the the zero temperature vibrational energy from the frequency calculation
    E(vib)  - the the finite temperature correction to E(ZPE) due to population
              of excited vibrational states
    E(rot)  - is the rotational thermal energy
    E(trans)- is the translational thermal energy

Summary of contributions to the inner energy U:
Electronic energy                ...  -2029.63984456 Eh
Zero point energy                ...      0.12102668 Eh      75.95 kcal/mol
Thermal vibrational correction   ...      0.02298583 Eh      14.42 kcal/mol
Thermal rotational correction    ...      0.00141627 Eh       0.89 kcal/mol
Thermal translational correction ...      0.00141627 Eh       0.89 kcal/mol
-----------------------------------------------------------------------
Total thermal energy                  -2029.49299952 Eh

Summary of corrections to the electronic energy:
(perhaps to be used in another calculation)
Total thermal correction                  0.02581837 Eh      16.20 kcal/mol
Non-thermal (ZPE) correction              0.12102668 Eh      75.95 kcal/mol
-----------------------------------------------------------------------
Total correction                          0.14684505 Eh      92.15 kcal/mol

--------
ENTHALPY
--------

The enthalpy is H = U + kB*T
                kB is Boltzmann's constant
Total thermal energy              ...  -2029.49299952 Eh
Thermal Enthalpy correction       ...      0.00094421 Eh       0.59 kcal/mol
-----------------------------------------------------------------------
Total Enthalpy                    ...  -2029.49205531 Eh

Note: Only C1 symmetry has been detected, increase convergence thresholds
      if your molecule has a higher symmetry. Symmetry factor of 1.0 is
      used for the rotational entropy correction.

Note: Rotational entropy computed according to Herzberg
Infrared and Raman Spectra, Chapter V,1, Van Nostrand Reinhold, 1945
Point Group:  C1, Symmetry Number:   1
Rotational constants in cm-1:     0.016754     0.003413     0.003246

Vibrational entropy computed according to the QRRHO of S. Grimme
Chem.Eur.J. 2012 18 9955 using a reference frequency of 100.0 cm-1

-------
ENTROPY
-------

The entropy contributions are T*S = T*(S(el)+S(vib)+S(rot)+S(trans))
     S(el)   - electronic entropy
     S(vib)  - vibrational entropy

                             ****ORCA TERMINATED NORMALLY****
TOTAL RUN TIME: 0 days 0 hours 13 minutes 43 seconds 476 msec
