                         Program Version 6.0.1  -  RELEASE   -
|  1> !TPSSh def2-TZVP freq d3 TightSCF SlowConv defgrid2
|  2>
|  3> %pal
|  4> nprocs 20
|  5> end
|  6>
|  7> %scf
|  8> MaxIter 1500
|  9> end
| 10>
| 11> %maxcore 8000
| 12>
| 13> !CPCM
| 14> %cpcm smd true
| 15> SMDsolvent "ACETONITRILE"
| 16> end
| 17>
| 18> * xyz 0 2
| 19> 6        4.253038000     -0.329911000      0.633454000
| 20> 8        5.027057000     -1.131046000     -0.088355000
| 21> 8        4.603585000      0.477554000      1.450305000
| 22> 6        2.760576000     -0.544160000      0.280345000
| 23> 6        2.284900000      0.291150000     -0.951020000
| 24> 6        0.855980000      0.055837000     -1.351758000
| 25> 6       -0.378194000      0.758194000     -0.876926000
| 26> 6       -1.502410000     -0.228568000     -0.397197000
| 27> 6       -2.602008000      0.447022000      0.487544000
| 28> 6       -3.928198000     -0.370548000      0.603490000
| 29> 9        2.507934000     -1.849919000      0.010074000
| 30> 9        2.013231000     -0.178886000      1.345800000
| 31> 9        2.485682000      1.601733000     -0.664338000
| 32> 9        3.078959000     -0.046525000     -2.002245000
| 33> 9        0.654990000     -0.948857000     -2.192152000
| 34> 9       -0.068365000      1.588311000      0.145881000
| 35> 9       -0.905952000      1.512634000     -1.885459000
| 36> 9       -0.926521000     -1.214071000      0.328223000
| 37> 9       -2.083609000     -0.784840000     -1.482560000
| 38> 9       -2.916834000      1.658694000     -0.019292000
| 39> 9       -2.111318000      0.613079000      1.732644000
| 40> 9       -3.673610000     -1.642047000      0.930942000
| 41> 9       -4.688400000      0.174661000      1.558549000
| 42> 9       -4.608048000     -0.345179000     -0.544665000
| 43> 1        5.963714000     -0.961023000      0.141447000
| 44> *
| 45>
| 46>                          ****END OF INPUT****

CARTESIAN COORDINATES (ANGSTROEM)
---------------------------------
  C      4.253038   -0.329911    0.633454
  O      5.027057   -1.131046   -0.088355
  O      4.603585    0.477554    1.450305
  C      2.760576   -0.544160    0.280345
  C      2.284900    0.291150   -0.951020
  C      0.855980    0.055837   -1.351758
  C     -0.378194    0.758194   -0.876926
  C     -1.502410   -0.228568   -0.397197
  C     -2.602008    0.447022    0.487544
  C     -3.928198   -0.370548    0.603490
  F      2.507934   -1.849919    0.010074
  F      2.013231   -0.178886    1.345800
  F      2.485682    1.601733   -0.664338
  F      3.078959   -0.046525   -2.002245
  F      0.654990   -0.948857   -2.192152
  F     -0.068365    1.588311    0.145881
  F     -0.905952    1.512634   -1.885459
  F     -0.926521   -1.214071    0.328223
  F     -2.083609   -0.784840   -1.482560
  F     -2.916834    1.658694   -0.019292
  F     -2.111318    0.613079    1.732644
  F     -3.673610   -1.642047    0.930942
  F     -4.688400    0.174661    1.558549
  F     -4.608048   -0.345179   -0.544665
  H      5.963714   -0.961023    0.141447

 Total Charge           Charge          ....    0
 Multiplicity           Mult            ....    2
 Number of Electrons    NEL             ....  191
 Basis Dimension        Dim             ....  750

ORBITAL ENERGIES
----------------
                 SPIN UP ORBITALS
  NO   OCC          E(Eh)            E(eV)
   0   1.0000     -24.675042      -671.4420
   1   1.0000     -24.662132      -671.0907
   2   1.0000     -24.661185      -671.0650
   3   1.0000     -24.661151      -671.0640
   4   1.0000     -24.660623      -671.0497
   5   1.0000     -24.660615      -671.0495
   6   1.0000     -24.660379      -671.0430
   7   1.0000     -24.659591      -671.0216
   8   1.0000     -24.658363      -670.9882
   9   1.0000     -24.652755      -670.8356
  10   1.0000     -24.651449      -670.8000
  11   1.0000     -24.649724      -670.7531
  12   1.0000     -24.648558      -670.7214
  13   1.0000     -24.648514      -670.7202
  14   1.0000     -19.131687      -520.5997
  15   1.0000     -19.078458      -519.1512
  16   1.0000     -10.396691      -282.9083
  17   1.0000     -10.344874      -281.4983
  18   1.0000     -10.344762      -281.4953
  19   1.0000     -10.344065      -281.4763
  20   1.0000     -10.339954      -281.3644
  21   1.0000     -10.327862      -281.0354
  22   1.0000     -10.279252      -279.7127
  23   1.0000     -10.269056      -279.4352
  24   1.0000      -1.323122       -36.0040
  25   1.0000      -1.296815       -35.2881
  26   1.0000      -1.285703       -34.9858
  27   1.0000      -1.279164       -34.8078
  28   1.0000      -1.274356       -34.6770
  29   1.0000      -1.268790       -34.5255
  30   1.0000      -1.263506       -34.3817
  31   1.0000      -1.238159       -33.6920
  32   1.0000      -1.232425       -33.5360
  33   1.0000      -1.230101       -33.4728
  34   1.0000      -1.222906       -33.2770
  35   1.0000      -1.221541       -33.2398
  36   1.0000      -1.217244       -33.1229
  37   1.0000      -1.211414       -32.9643
  38   1.0000      -1.117713       -30.4145
  39   1.0000      -1.033709       -28.1287
  40   1.0000      -0.837024       -22.7766
  41   1.0000      -0.814294       -22.1581
  42   1.0000      -0.786498       -21.4017
  43   1.0000      -0.753803       -20.5120
  44   1.0000      -0.713646       -19.4193
  45   1.0000      -0.673660       -18.3312
  46   1.0000      -0.654055       -17.7977
  47   1.0000      -0.638300       -17.3690
  48   1.0000      -0.623359       -16.9625
  49   1.0000      -0.619308       -16.8522
  50   1.0000      -0.610898       -16.6234
  51   1.0000      -0.600900       -16.3513
  52   1.0000      -0.600301       -16.3350
  53   1.0000      -0.595775       -16.2119
  54   1.0000      -0.586182       -15.9508
  55   1.0000      -0.584651       -15.9092
  56   1.0000      -0.583040       -15.8653
  57   1.0000      -0.570486       -15.5237
  58   1.0000      -0.568202       -15.4616
  59   1.0000      -0.555833       -15.1250
  60   1.0000      -0.552075       -15.0227
  61   1.0000      -0.544180       -14.8079
  62   1.0000      -0.508838       -13.8462
  63   1.0000      -0.495755       -13.4902
  64   1.0000      -0.486433       -13.2365
  65   1.0000      -0.482389       -13.1265
  66   1.0000      -0.476015       -12.9530
  67   1.0000      -0.471562       -12.8318
  68   1.0000      -0.470425       -12.8009
  69   1.0000      -0.467387       -12.7182
  70   1.0000      -0.463311       -12.6073
  71   1.0000      -0.459470       -12.5028
  72   1.0000      -0.456268       -12.4157
  73   1.0000      -0.454333       -12.3630
  74   1.0000      -0.449271       -12.2253
  75   1.0000      -0.445536       -12.1237
  76   1.0000      -0.442327       -12.0363
  77   1.0000      -0.440831       -11.9956
  78   1.0000      -0.437933       -11.9168
  79   1.0000      -0.435351       -11.8465
  80   1.0000      -0.431921       -11.7532
  81   1.0000      -0.424934       -11.5630
  82   1.0000      -0.423368       -11.5204
  83   1.0000      -0.422209       -11.4889
  84   1.0000      -0.419946       -11.4273
  85   1.0000      -0.415729       -11.3126
  86   1.0000      -0.413105       -11.2412
  87   1.0000      -0.411938       -11.2094
  88   1.0000      -0.410596       -11.1729
  89   1.0000      -0.403442       -10.9782
  90   1.0000      -0.387349       -10.5403
  91   1.0000      -0.361191        -9.8285
  92   1.0000      -0.339530        -9.2391
  93   1.0000      -0.337441        -9.1822
  94   1.0000      -0.298241        -8.1156
  95   1.0000      -0.258770        -7.0415
  96   0.0000      -0.058432        -1.5900
  97   0.0000      -0.023697        -0.6448
  98   0.0000       0.004138         0.1126
  99   0.0000       0.019715         0.5365
 100   0.0000       0.039433         1.0730

                 SPIN DOWN ORBITALS
  NO   OCC          E(Eh)            E(eV)
   0   1.0000     -24.670644      -671.3224
   1   1.0000     -24.662133      -671.0908
   2   1.0000     -24.661149      -671.0640
   3   1.0000     -24.661080      -671.0621
   4   1.0000     -24.660617      -671.0495
   5   1.0000     -24.660587      -671.0487
   6   1.0000     -24.660362      -671.0426
   7   1.0000     -24.659585      -671.0214
   8   1.0000     -24.658264      -670.9855
   9   1.0000     -24.652331      -670.8240
  10   1.0000     -24.651003      -670.7879
  11   1.0000     -24.648545      -670.7210
  12   1.0000     -24.648507      -670.7200
  13   1.0000     -24.648391      -670.7168
  14   1.0000     -19.131643      -520.5985
  15   1.0000     -19.078260      -519.1458
  16   1.0000     -10.396664      -282.9076
  17   1.0000     -10.345740      -281.5219
  18   1.0000     -10.344707      -281.4938
  19   1.0000     -10.343625      -281.4643
  20   1.0000     -10.340957      -281.3917
  21   1.0000     -10.327100      -281.0147
  22   1.0000     -10.279148      -279.7098
  23   1.0000     -10.253413      -279.0096
  24   1.0000      -1.323095       -36.0032
  25   1.0000      -1.296118       -35.2692
  26   1.0000      -1.284161       -34.9438
  27   1.0000      -1.278944       -34.8018
  28   1.0000      -1.273438       -34.6520
  29   1.0000      -1.266536       -34.4642
  30   1.0000      -1.258106       -34.2348
  31   1.0000      -1.238096       -33.6903
  32   1.0000      -1.232400       -33.5353
  33   1.0000      -1.229849       -33.4659
  34   1.0000      -1.222750       -33.2727
  35   1.0000      -1.220776       -33.2190
  36   1.0000      -1.215651       -33.0795
  37   1.0000      -1.210995       -32.9528
  38   1.0000      -1.117544       -30.4099
  39   1.0000      -1.033433       -28.1212
  40   1.0000      -0.826639       -22.4940
  41   1.0000      -0.809884       -22.0381
  42   1.0000      -0.784175       -21.3385
  43   1.0000      -0.747501       -20.3405
  44   1.0000      -0.712653       -19.3923
  45   1.0000      -0.670937       -18.2571
  46   1.0000      -0.650089       -17.6898
  47   1.0000      -0.636517       -17.3205
  48   1.0000      -0.622490       -16.9388
  49   1.0000      -0.618079       -16.8188
  50   1.0000      -0.610687       -16.6176
  51   1.0000      -0.599179       -16.3045
  52   1.0000      -0.598546       -16.2873
  53   1.0000      -0.591796       -16.1036
  54   1.0000      -0.584975       -15.9180
  55   1.0000      -0.582632       -15.8542
  56   1.0000      -0.582040       -15.8381
  57   1.0000      -0.569092       -15.4858
  58   1.0000      -0.567631       -15.4460
  59   1.0000      -0.554678       -15.0936
  60   1.0000      -0.550303       -14.9745
  61   1.0000      -0.543465       -14.7884
  62   1.0000      -0.495653       -13.4874
  63   1.0000      -0.486389       -13.2353
  64   1.0000      -0.485367       -13.2075
  65   1.0000      -0.478688       -13.0258
  66   1.0000      -0.473744       -12.8912
  67   1.0000      -0.471010       -12.8168
  68   1.0000      -0.469678       -12.7806
  69   1.0000      -0.466622       -12.6974
  70   1.0000      -0.461923       -12.5696
  71   1.0000      -0.459001       -12.4900
  72   1.0000      -0.455467       -12.3939
  73   1.0000      -0.453485       -12.3400
  74   1.0000      -0.448333       -12.1998
  75   1.0000      -0.444524       -12.0961
  76   1.0000      -0.440867       -11.9966
  77   1.0000      -0.439632       -11.9630
  78   1.0000      -0.436125       -11.8676
  79   1.0000      -0.434698       -11.8287
  80   1.0000      -0.430496       -11.7144
  81   1.0000      -0.424843       -11.5606
  82   1.0000      -0.422708       -11.5025
  83   1.0000      -0.421939       -11.4816
  84   1.0000      -0.419296       -11.4096
  85   1.0000      -0.415087       -11.2951
  86   1.0000      -0.412957       -11.2371
  87   1.0000      -0.411059       -11.1855
  88   1.0000      -0.410036       -11.1577
  89   1.0000      -0.402494       -10.9524
  90   1.0000      -0.385998       -10.5035
  91   1.0000      -0.358341        -9.7510
  92   1.0000      -0.338672        -9.2157
  93   1.0000      -0.336143        -9.1469
  94   1.0000      -0.296140        -8.0584
  95   0.0000      -0.138473        -3.7680
  96   0.0000      -0.054165        -1.4739
  97   0.0000      -0.019109        -0.5200
  98   0.0000       0.006789         0.1848
  99   0.0000       0.022925         0.6238

MULLIKEN ATOMIC CHARGES AND SPIN POPULATIONS
--------------------------------------------
   0 C :    0.220235    0.003641
   1 O :   -0.342247    0.001103
   2 O :   -0.288815    0.006938
   3 C :    0.370287    0.030517
   4 C :    0.323303   -0.030582
   5 C :    0.107865    0.855000
   6 C :    0.331065   -0.003470
   7 C :    0.277889    0.006696
   8 C :    0.295071    0.002452
   9 C :    0.410038    0.001099
  10 F :   -0.167572   -0.000243
  11 F :   -0.164550   -0.000375
  12 F :   -0.156826    0.006687
  13 F :   -0.158693    0.007964
  14 F :   -0.126505    0.083958
  15 F :   -0.155925    0.000532
  16 F :   -0.157406    0.025155
  17 F :   -0.155089    0.000147
  18 F :   -0.150536    0.002089
  19 F :   -0.146432   -0.000085
  20 F :   -0.144275    0.000146
  21 F :   -0.136152   -0.000042
  22 F :   -0.132812    0.000321
  23 F :   -0.133284    0.000026
  24 H :    0.381364    0.000326
Sum of atomic charges         :   -0.0000000

LOEWDIN ATOMIC CHARGES AND SPIN POPULATIONS
-------------------------------------------
   0 C :   -0.489123    0.004965
   1 O :    0.154921    0.001172
   2 O :    0.134019    0.005932
   3 C :   -0.449432    0.026174
   4 C :   -0.478772    0.061261
   5 C :   -0.157965    0.659088
   6 C :   -0.477685    0.063624
   7 C :   -0.453190    0.013403
   8 C :   -0.466638    0.002732
   9 C :   -0.667561    0.000813
  10 F :    0.205511    0.000456
  11 F :    0.215350    0.000742
  12 F :    0.215978    0.008354
  13 F :    0.211821    0.008704
  14 F :    0.265645    0.107618
  15 F :    0.225169    0.002681
  16 F :    0.199581    0.027562
  17 F :    0.224109    0.001286
  18 F :    0.224541    0.002616
  19 F :    0.224691   -0.000015
  20 F :    0.225430    0.000215
  21 F :    0.225946   -0.000015
  22 F :    0.226599    0.000375
  23 F :    0.228334    0.000060
  24 H :    0.232722    0.000195

  Mayer bond orders larger than 0.100000
B(  0-C ,  1-O ) :   1.3135 B(  0-C ,  2-O ) :   2.0706 B(  0-C ,  3-C ) :   0.9090
B(  1-O , 24-H ) :   0.8207 B(  3-C ,  4-C ) :   0.9342 B(  3-C , 10-F ) :   1.0775
B(  3-C , 11-F ) :   1.1005 B(  4-C ,  5-C ) :   1.0279 B(  4-C , 12-F ) :   1.1038
B(  4-C , 13-F ) :   1.0832 B(  5-C ,  6-C ) :   1.0678 B(  5-C , 14-F ) :   1.1409
B(  6-C ,  7-C ) :   0.9311 B(  6-C , 15-F ) :   1.0805 B(  6-C , 16-F ) :   1.0821
B(  7-C ,  8-C ) :   0.9287 B(  7-C , 17-F ) :   1.0857 B(  7-C , 18-F ) :   1.0983
B(  8-C ,  9-C ) :   0.9666 B(  8-C , 19-F ) :   1.1009 B(  8-C , 20-F ) :   1.1133
B(  9-C , 21-F ) :   1.1581 B(  9-C , 22-F ) :   1.1621 B(  9-C , 23-F ) :   1.1703

Dispersion correction           -0.030037280
FINAL SINGLE POINT ENERGY     -1854.409882368583

DIPOLE MOMENT
-------------

Method             : SCF
Type of density    : Electron Density
Multiplicity       :   2
Irrep              :   0
Energy             : -1854.3798450888280058 Eh
Relativity type    :
Basis              : AO
                                X                 Y                 Z
Electronic contribution:    -14.125766482       0.701631742      -1.690541846
Nuclear contribution   :     15.164790502      -1.278021299       1.202109344
                        -----------------------------------------
Total Dipole Moment    :      1.039024019      -0.576389557      -0.488432502
                        -----------------------------------------
Magnitude (a.u.)       :      1.284664214
Magnitude (Debye)      :      3.265356930

VIBRATIONAL FREQUENCIES
-----------------------

Scaling factor for frequencies =  1.000000000  (already applied!)

     0:       0.00 cm**-1
     1:       0.00 cm**-1
     2:       0.00 cm**-1
     3:       0.00 cm**-1
     4:       0.00 cm**-1
     5:       0.00 cm**-1
     6:      15.01 cm**-1
     7:      27.66 cm**-1
     8:      33.79 cm**-1
     9:      38.79 cm**-1
    10:      52.85 cm**-1
    11:      57.38 cm**-1
    12:      66.83 cm**-1
    13:      72.02 cm**-1
    14:      99.22 cm**-1
    15:     123.50 cm**-1
    16:     142.12 cm**-1
    17:     175.96 cm**-1
    18:     179.98 cm**-1
    19:     196.46 cm**-1
    20:     203.78 cm**-1
    21:     206.67 cm**-1
    22:     229.76 cm**-1
    23:     231.53 cm**-1
    24:     248.19 cm**-1
    25:     272.45 cm**-1
    26:     277.17 cm**-1
    27:     302.56 cm**-1
    28:     325.54 cm**-1
    29:     333.70 cm**-1
    30:     340.57 cm**-1
    31:     350.48 cm**-1
    32:     364.29 cm**-1
    33:     365.92 cm**-1
    34:     398.43 cm**-1
    35:     410.95 cm**-1
    36:     446.54 cm**-1
    37:     493.28 cm**-1
    38:     512.94 cm**-1
    39:     519.62 cm**-1
    40:     547.71 cm**-1
    41:     557.61 cm**-1
    42:     566.87 cm**-1
    43:     585.00 cm**-1
    44:     595.14 cm**-1
    45:     614.61 cm**-1
    46:     644.68 cm**-1
    47:     649.14 cm**-1
    48:     688.63 cm**-1
    49:     705.67 cm**-1
    50:     752.33 cm**-1
    51:     763.56 cm**-1
    52:     861.07 cm**-1
    53:     975.46 cm**-1
    54:    1042.29 cm**-1
    55:    1093.17 cm**-1
    56:    1111.80 cm**-1
    57:    1112.59 cm**-1
    58:    1119.25 cm**-1
    59:    1132.06 cm**-1
    60:    1135.05 cm**-1
    61:    1140.23 cm**-1
    62:    1151.10 cm**-1
    63:    1160.31 cm**-1
    64:    1163.82 cm**-1
    65:    1175.37 cm**-1
    66:    1198.75 cm**-1
    67:    1206.65 cm**-1
    68:    1245.98 cm**-1
    69:    1309.14 cm**-1
    70:    1320.72 cm**-1
    71:    1367.16 cm**-1
    72:    1393.42 cm**-1
    73:    1807.26 cm**-1
    74:    3602.42 cm**-1

IR SPECTRUM
-----------

 Mode   freq       eps      Int      T**2         TX        TY        TZ
       cm**-1   L/(mol*cm) km/mol    a.u.
----------------------------------------------------------------------------
  6:     15.01   0.000003    0.01  0.000061  (-0.001724  0.003047 -0.007016)
  7:     27.66   0.000021    0.10  0.000232  (-0.005858 -0.000766 -0.014024)
  8:     33.79   0.000220    1.11  0.002031  (-0.020751 -0.039997  0.000738)
  9:     38.79   0.000062    0.31  0.000497  ( 0.006479  0.021325  0.000572)
 10:     52.85   0.000020    0.10  0.000117  ( 0.004764 -0.009194 -0.003110)
 11:     57.38   0.000056    0.28  0.000304  ( 0.004566  0.016514  0.003303)
 12:     66.83   0.000492    2.49  0.002297  (-0.006593 -0.029504  0.037189)
 13:     72.02   0.000024    0.12  0.000104  (-0.001570  0.005293  0.008566)
 14:     99.22   0.000146    0.74  0.000458  (-0.011899  0.017782 -0.000222)
 15:    123.50   0.000666    3.36  0.001682  (-0.023999  0.001573 -0.033223)
 16:    142.12   0.000035    0.18  0.000077  ( 0.007961 -0.000928  0.003504)
 17:    175.96   0.001165    5.89  0.002065  ( 0.020237 -0.001296  0.040671)
 18:    179.98   0.000214    1.08  0.000370  (-0.012567 -0.003600 -0.014120)
 19:    196.46   0.001086    5.49  0.001724  (-0.024495  0.029281 -0.016343)
 20:    203.78   0.000159    0.80  0.000244  ( 0.000295  0.011103 -0.010972)
 21:    206.67   0.000433    2.19  0.000654  (-0.002959 -0.001336  0.025375)
 22:    229.76   0.000035    0.18  0.000048  ( 0.005761 -0.003791  0.000159)
 23:    231.53   0.000017    0.09  0.000023  (-0.001923  0.000624 -0.004382)
 24:    248.19   0.000400    2.02  0.000503  (-0.019598 -0.003807 -0.010235)
 25:    272.45   0.001398    7.07  0.001602  (-0.036830  0.006210  0.014371)
 26:    277.17   0.000528    2.67  0.000594  (-0.019028  0.006762  0.013651)
 27:    302.56   0.000011    0.06  0.000012  ( 0.001553 -0.002145  0.002138)
 28:    325.54   0.000150    0.76  0.000144  (-0.009398 -0.002069 -0.007143)
 29:    333.70   0.000168    0.85  0.000157  (-0.004679 -0.005711 -0.010139)
 30:    340.57   0.000112    0.57  0.000103  (-0.008409  0.000592  0.005647)
 31:    350.48   0.000053    0.27  0.000047  ( 0.001925  0.001790  0.006367)
 32:    364.29   0.000278    1.41  0.000238  ( 0.008803  0.011515  0.005297)
 33:    365.92   0.000168    0.85  0.000144  ( 0.010894  0.003632  0.003425)
 34:    398.43   0.000194    0.98  0.000152  (-0.006664  0.007182 -0.007495)
 35:    410.95   0.000670    3.39  0.000509  (-0.007715  0.018621  0.010135)
 36:    446.54   0.001698    8.58  0.001187  (-0.028592 -0.010431  0.016136)
 37:    493.28   0.002814   14.22  0.001780  ( 0.039720  0.008844 -0.011152)
 38:    512.94   0.004711   23.81  0.002866  (-0.028454 -0.019951  0.040725)
 39:    519.62   0.004619   23.34  0.002774  ( 0.034879 -0.038380 -0.009183)
 40:    547.71   0.000788    3.98  0.000449  (-0.018435  0.002893 -0.010038)
 41:    557.61   0.014805   74.82  0.008286  ( 0.075853  0.022471 -0.045022)
 42:    566.87   0.006064   30.64  0.003338  ( 0.032925  0.046419 -0.009963)
 43:    585.00   0.004284   21.65  0.002285  (-0.035873 -0.017256  0.026467)
 44:    595.14   0.014322   72.38  0.007510  ( 0.041327 -0.056201  0.051413)
 45:    614.61   0.017086   86.35  0.008675  (-0.076029  0.037427 -0.038654)
 46:    644.68   0.028151  142.26  0.013626  ( 0.097637 -0.056333  0.030332)
 47:    649.14   0.004042   20.43  0.001943  (-0.024732 -0.023439  0.027967)
 48:    688.63   0.019571   98.90  0.008869  ( 0.078439  0.025573 -0.045409)
 49:    705.67   0.012261   61.96  0.005422  (-0.059478 -0.014520  0.040909)
 50:    752.33   0.001057    5.34  0.000438  (-0.007111 -0.014696  0.013110)
 51:    763.56   0.012706   64.21  0.005193  ( 0.058008  0.014313 -0.040289)
 52:    861.07   0.015599   78.83  0.005653  (-0.004703 -0.014758  0.073575)
 53:    975.46   0.004851   24.52  0.001552  ( 0.033693 -0.006232  0.019442)
 54:   1042.29   0.039718  200.72  0.011892  ( 0.083404 -0.053665  0.045336)
 55:   1093.17   0.053643  271.09  0.015313  ( 0.031355  0.106925 -0.053825)
 56:   1111.80   0.003744   18.92  0.001051  (-0.027084 -0.009576  0.015021)
 57:   1112.59   0.046002  232.48  0.012903  ( 0.037254 -0.064799 -0.085534)
 58:   1119.25   0.055011  278.00  0.015338  (-0.101029 -0.059216  0.040305)
 59:   1132.06   0.108130  546.45  0.029807  ( 0.054312 -0.154310 -0.055188)
 60:   1135.05   0.035208  177.93  0.009680  ( 0.038257 -0.024601  0.087242)
 61:   1140.23   0.008704   43.99  0.002382  ( 0.026742  0.033353  0.023548)
 62:   1151.10   0.093125  470.62  0.025246  (-0.060144  0.028781 -0.144224)
 63:   1160.31   0.127444  644.05  0.034276  ( 0.012312 -0.166598 -0.079809)
 64:   1163.82   0.024981  126.24  0.006698  ( 0.037897 -0.060169 -0.040518)
 65:   1175.37   0.082340  416.11  0.021861  ( 0.048738 -0.025254  0.137289)
 66:   1198.75   0.006547   33.09  0.001704  (-0.027868  0.011218  0.028317)
 67:   1206.65   0.002998   15.15  0.000775  (-0.012907  0.006296 -0.023855)
 68:   1245.98   0.003469   17.53  0.000869  ( 0.026708 -0.002555  0.012203)
 69:   1309.14   0.028216  142.59  0.006726  (-0.068413  0.010231  0.044057)
 70:   1320.72   0.017155   86.69  0.004053  ( 0.059640 -0.018281 -0.012737)
 71:   1367.16   0.018659   94.30  0.004259  ( 0.054670  0.003662  0.035453)
 72:   1393.42   0.016147   81.60  0.003616  (-0.038541  0.038837  0.024952)
 73:   1807.26   0.092635  468.14  0.015995  (-0.012199 -0.083990 -0.093768)
 74:   3602.42   0.048939  247.32  0.004239  ( 0.064781 -0.006542  0.000231)

--------------------------
THERMOCHEMISTRY AT 298.15K
--------------------------

Temperature         ...   298.15 K
Pressure            ...     1.00 atm
Total Mass          ...   395.07 AMU
Quasi RRHO          ...     True
Cut-Off Frequency   ...     1.00 cm^-1

Throughout the following assumptions are being made:
  (1) The electronic state is orbitally nondegenerate
      but the spin degeneracy is treated
  (2) There are no thermally accessible electronically excited states
  (3) Hindered rotations indicated by low frequency modes are not
      treated as such but are treated as vibrations and this may
      cause some error
  (4) All equations used are the standard statistical mechanics
      equations for an ideal gas
  (5) All vibrations are strictly harmonic

freq.      15.01  E(vib)   ...       0.57
freq.      27.66  E(vib)   ...       0.55
freq.      33.79  E(vib)   ...       0.55
freq.      38.79  E(vib)   ...       0.54
freq.      52.85  E(vib)   ...       0.52
freq.      57.38  E(vib)   ...       0.51
freq.      66.83  E(vib)   ...       0.50
freq.      72.02  E(vib)   ...       0.50
freq.      99.22  E(vib)   ...       0.46
freq.     123.50  E(vib)   ...       0.43
freq.     142.12  E(vib)   ...       0.41
freq.     175.96  E(vib)   ...       0.38
freq.     179.98  E(vib)   ...       0.37
freq.     196.46  E(vib)   ...       0.36
freq.     203.78  E(vib)   ...       0.35
freq.     206.67  E(vib)   ...       0.35
freq.     229.76  E(vib)   ...       0.32
freq.     231.53  E(vib)   ...       0.32
freq.     248.19  E(vib)   ...       0.31
freq.     272.45  E(vib)   ...       0.29
freq.     277.17  E(vib)   ...       0.28
freq.     302.56  E(vib)   ...       0.26
freq.     325.54  E(vib)   ...       0.24
freq.     333.70  E(vib)   ...       0.24
freq.     340.57  E(vib)   ...       0.23
freq.     350.48  E(vib)   ...       0.23
freq.     364.29  E(vib)   ...       0.22
freq.     365.92  E(vib)   ...       0.22
freq.     398.43  E(vib)   ...       0.20
freq.     410.95  E(vib)   ...       0.19
freq.     446.54  E(vib)   ...       0.17
freq.     493.28  E(vib)   ...       0.14
freq.     512.94  E(vib)   ...       0.13
freq.     519.62  E(vib)   ...       0.13
freq.     547.71  E(vib)   ...       0.12
freq.     557.61  E(vib)   ...       0.12
freq.     566.87  E(vib)   ...       0.11
freq.     585.00  E(vib)   ...       0.11
freq.     595.14  E(vib)   ...       0.10
freq.     614.61  E(vib)   ...       0.10
freq.     644.68  E(vib)   ...       0.09
freq.     649.14  E(vib)   ...       0.08
freq.     688.63  E(vib)   ...       0.07
freq.     705.67  E(vib)   ...       0.07
freq.     752.33  E(vib)   ...       0.06
freq.     763.56  E(vib)   ...       0.06
freq.     861.07  E(vib)   ...       0.04
freq.     975.46  E(vib)   ...       0.03
freq.    1042.29  E(vib)   ...       0.02
freq.    1093.17  E(vib)   ...       0.02
freq.    1111.80  E(vib)   ...       0.01
freq.    1112.59  E(vib)   ...       0.01
freq.    1119.25  E(vib)   ...       0.01
freq.    1132.06  E(vib)   ...       0.01
freq.    1135.05  E(vib)   ...       0.01
freq.    1140.23  E(vib)   ...       0.01
freq.    1151.10  E(vib)   ...       0.01
freq.    1160.31  E(vib)   ...       0.01
freq.    1163.82  E(vib)   ...       0.01
freq.    1175.37  E(vib)   ...       0.01
freq.    1198.75  E(vib)   ...       0.01
freq.    1206.65  E(vib)   ...       0.01
freq.    1245.98  E(vib)   ...       0.01
freq.    1309.14  E(vib)   ...       0.01
freq.    1320.72  E(vib)   ...       0.01
freq.    1367.16  E(vib)   ...       0.01
freq.    1393.42  E(vib)   ...       0.00
freq.    1807.26  E(vib)   ...       0.00
freq.    3602.42  E(vib)   ...       0.00

------------
INNER ENERGY
------------

The inner energy is: U= E(el) + E(ZPE) + E(vib) + E(rot) + E(trans)
    E(el)   - is the total energy from the electronic structure calculation
              = E(kin-el) + E(nuc-el) + E(el-el) + E(nuc-nuc)
    E(ZPE)  - the the zero temperature vibrational energy from the frequency calculation
    E(vib)  - the the finite temperature correction to E(ZPE) due to population
              of excited vibrational states
    E(rot)  - is the rotational thermal energy
    E(trans)- is the translational thermal energy

Summary of contributions to the inner energy U:
Electronic energy                ...  -1854.40988237 Eh
Zero point energy                ...      0.10391171 Eh      65.21 kcal/mol
Thermal vibrational correction   ...      0.02044837 Eh      12.83 kcal/mol
Thermal rotational correction    ...      0.00141627 Eh       0.89 kcal/mol
Thermal translational correction ...      0.00141627 Eh       0.89 kcal/mol
-----------------------------------------------------------------------
Total thermal energy                  -1854.28268974 Eh

Summary of corrections to the electronic energy:
(perhaps to be used in another calculation)
Total thermal correction                  0.02328092 Eh      14.61 kcal/mol
Non-thermal (ZPE) correction              0.10391171 Eh      65.21 kcal/mol
-----------------------------------------------------------------------
Total correction                          0.12719263 Eh      79.81 kcal/mol

--------
ENTHALPY
--------

The enthalpy is H = U + kB*T
                kB is Boltzmann's constant
Total thermal energy              ...  -1854.28268974 Eh
Thermal Enthalpy correction       ...      0.00094421 Eh       0.59 kcal/mol
-----------------------------------------------------------------------
Total Enthalpy                    ...  -1854.28174553 Eh

Note: Only C1 symmetry has been detected, increase convergence thresholds
      if your molecule has a higher symmetry. Symmetry factor of 1.0 is
      used for the rotational entropy correction.

Note: Rotational entropy computed according to Herzberg
Infrared and Raman Spectra, Chapter V,1, Van Nostrand Reinhold, 1945
Point Group:  C1, Symmetry Number:   1
Rotational constants in cm-1:     0.018035     0.004417     0.004285

Vibrational entropy computed according to the QRRHO of S. Grimme
Chem.Eur.J. 2012 18 9955 using a reference frequency of 100.0 cm-1

-------
ENTROPY
-------

The entropy contributions are T*S = T*(S(el)+S(vib)+S(rot)+S(trans))
     S(el)   - electronic entropy
     S(vib)  - vibrational entropy
     S(rot)  - rotational entropy
     S(trans)- translational entropy
The entropies will be listed as multiplied by the temperature to get
units of energy

Electronic entropy                ...      0.00065446 Eh      0.41 kcal/mol
Vibrational entropy               ...      0.03713253 Eh     23.30 kcal/mol

                             ****ORCA TERMINATED NORMALLY****
TOTAL RUN TIME: 0 days 0 hours 24 minutes 51 seconds 21 msec
