                         Program Version 6.0.1  -  RELEASE   -
|  1> !r2scanh def2-TZVP freq d3 TightSCF SlowConv defgrid2
|  2>
|  3> %pal
|  4> nprocs 20
|  5> end
|  6>
|  7> %scf
|  8> MaxIter 1500
|  9> end
| 10>
| 11> %maxcore 8000
| 12>
| 13> !CPCM
| 14> %cpcm smd true
| 15> SMDsolvent "ACETONITRILE"
| 16> end
| 17>
| 18> * xyz -1 2
| 19> 6        4.788260000      0.073058000     -0.372975000
| 20> 8        5.369040000     -0.797621000     -1.028090000
| 21> 8        5.039801000      1.270552000     -0.178945000
| 22> 6        3.478815000     -0.397957000      0.362463000
| 23> 6        2.214129000      0.302942000     -0.185516000
| 24> 6        0.876105000     -0.416754000      0.155757000
| 25> 6       -0.375990000      0.497124000     -0.002824000
| 26> 6       -1.708051000     -0.305911000     -0.097856000
| 27> 6       -2.970276000      0.538927000      0.223852000
| 28> 6       -4.244433000     -0.173654000     -0.181623000
| 29> 9        3.275994000     -1.737569000      0.249743000
| 30> 9        3.560925000     -0.129404000      1.694743000
| 31> 9        2.143997000      1.558019000      0.294796000
| 32> 9        2.311854000      0.365393000     -1.530708000
| 33> 9        0.728922000     -1.478382000     -0.656085000
| 34> 9        0.917255000     -0.846036000      1.428107000
| 35> 9       -0.443098000      1.325063000      1.051737000
| 36> 9       -0.248243000      1.229260000     -1.120980000
| 37> 9       -1.674894000     -1.334298000      0.765438000
| 38> 9       -1.826040000     -0.793713000     -1.343122000
| 39> 9       -2.866064000      1.730985000     -0.415579000
| 40> 9       -3.022219000      0.768251000      1.542830000
| 41> 9       -5.308260000      0.185369000      0.504360000
| 42> 9       -4.483007000     -0.195711000     -1.475107000
| 43> *
| 44>
| 45>                          ****END OF INPUT****

CARTESIAN COORDINATES (ANGSTROEM)
---------------------------------
  C      4.788260    0.073058   -0.372975
  O      5.369040   -0.797621   -1.028090
  O      5.039801    1.270552   -0.178945
  C      3.478815   -0.397957    0.362463
  C      2.214129    0.302942   -0.185516
  C      0.876105   -0.416754    0.155757
  C     -0.375990    0.497124   -0.002824
  C     -1.708051   -0.305911   -0.097856
  C     -2.970276    0.538927    0.223852
  C     -4.244433   -0.173654   -0.181623
  F      3.275994   -1.737569    0.249743
  F      3.560925   -0.129404    1.694743
  F      2.143997    1.558019    0.294796
  F      2.311854    0.365393   -1.530708
  F      0.728922   -1.478382   -0.656085
  F      0.917255   -0.846036    1.428107
  F     -0.443098    1.325063    1.051737
  F     -0.248243    1.229260   -1.120980
  F     -1.674894   -1.334298    0.765438
  F     -1.826040   -0.793713   -1.343122
  F     -2.866064    1.730985   -0.415579
  F     -3.022219    0.768251    1.542830
  F     -5.308260    0.185369    0.504360
  F     -4.483007   -0.195711   -1.475107

 Total Charge           Charge          ....   -1
 Multiplicity           Mult            ....    2
 Number of Electrons    NEL             ....  191
 Basis Dimension        Dim             ....  744

ORBITAL ENERGIES
----------------
                 SPIN UP ORBITALS
  NO   OCC          E(Eh)            E(eV)
   0   1.0000     -24.733832      -673.0418
   1   1.0000     -24.733516      -673.0332
   2   1.0000     -24.728389      -672.8937
   3   1.0000     -24.727892      -672.8802
   4   1.0000     -24.726709      -672.8480
   5   1.0000     -24.726551      -672.8437
   6   1.0000     -24.725000      -672.8015
   7   1.0000     -24.722623      -672.7368
   8   1.0000     -24.722206      -672.7254
   9   1.0000     -24.721483      -672.7057
  10   1.0000     -24.710752      -672.4137
  11   1.0000     -24.710597      -672.4095
  12   1.0000     -24.686221      -671.7462
  13   1.0000     -24.685912      -671.7378
  14   1.0000     -19.049336      -518.3588
  15   1.0000     -19.047436      -518.3071
  16   1.0000     -10.381158      -282.4857
  17   1.0000     -10.380990      -282.4811
  18   1.0000     -10.380528      -282.4685
  19   1.0000     -10.374601      -282.3072
  20   1.0000     -10.359531      -281.8972
  21   1.0000     -10.358317      -281.8641
  22   1.0000     -10.322128      -280.8794
  23   1.0000     -10.233536      -278.4687
  24   1.0000      -1.337701       -36.4007
  25   1.0000      -1.328244       -36.1434
  26   1.0000      -1.316899       -35.8346
  27   1.0000      -1.308759       -35.6131
  28   1.0000      -1.305687       -35.5296
  29   1.0000      -1.297541       -35.3079
  30   1.0000      -1.269602       -34.5476
  31   1.0000      -1.268382       -34.5144
  32   1.0000      -1.264500       -34.4088
  33   1.0000      -1.256488       -34.1908
  34   1.0000      -1.250455       -34.0266
  35   1.0000      -1.249832       -34.0097
  36   1.0000      -1.239273       -33.7223
  37   1.0000      -1.211001       -32.9530
  38   1.0000      -1.028968       -27.9996
  39   1.0000      -0.944629       -25.7047
  40   1.0000      -0.842910       -22.9367
  41   1.0000      -0.821537       -22.3552
  42   1.0000      -0.790600       -21.5133
  43   1.0000      -0.749378       -20.3916
  44   1.0000      -0.702520       -19.1166
  45   1.0000      -0.670849       -18.2547
  46   1.0000      -0.661569       -18.0022
  47   1.0000      -0.630757       -17.1638
  48   1.0000      -0.629132       -17.1196
  49   1.0000      -0.619897       -16.8682
  50   1.0000      -0.609964       -16.5980
  51   1.0000      -0.606892       -16.5144
  52   1.0000      -0.603561       -16.4237
  53   1.0000      -0.591018       -16.0824
  54   1.0000      -0.588936       -16.0258
  55   1.0000      -0.582498       -15.8506
  56   1.0000      -0.572578       -15.5806
  57   1.0000      -0.567896       -15.4532
  58   1.0000      -0.564413       -15.3585
  59   1.0000      -0.554833       -15.0978
  60   1.0000      -0.544571       -14.8185
  61   1.0000      -0.539878       -14.6908
  62   1.0000      -0.495651       -13.4874
  63   1.0000      -0.494418       -13.4538
  64   1.0000      -0.489313       -13.3149
  65   1.0000      -0.483909       -13.1678
  66   1.0000      -0.477175       -12.9846
  67   1.0000      -0.471808       -12.8385
  68   1.0000      -0.469910       -12.7869
  69   1.0000      -0.465397       -12.6641
  70   1.0000      -0.461880       -12.5684
  71   1.0000      -0.459755       -12.5106
  72   1.0000      -0.453900       -12.3512
  73   1.0000      -0.451844       -12.2953
  74   1.0000      -0.446320       -12.1450
  75   1.0000      -0.442795       -12.0491
  76   1.0000      -0.436397       -11.8750
  77   1.0000      -0.434989       -11.8366
  78   1.0000      -0.433462       -11.7951
  79   1.0000      -0.431299       -11.7362
  80   1.0000      -0.426923       -11.6172
  81   1.0000      -0.423480       -11.5235
  82   1.0000      -0.420263       -11.4359
  83   1.0000      -0.418110       -11.3774
  84   1.0000      -0.412759       -11.2318
  85   1.0000      -0.403070       -10.9681
  86   1.0000      -0.397803       -10.8248
  87   1.0000      -0.389389       -10.5958
  88   1.0000      -0.387359       -10.5406
  89   1.0000      -0.375292       -10.2122
  90   1.0000      -0.358930        -9.7670
  91   1.0000      -0.324465        -8.8291
  92   1.0000      -0.256478        -6.9791
  93   1.0000      -0.241636        -6.5753
  94   1.0000      -0.225426        -6.1341
  95   1.0000      -0.223258        -6.0752
  96   0.0000      -0.009309        -0.2533
  97   0.0000       0.000880         0.0239
  98   0.0000       0.021801         0.5932
  99   0.0000       0.050229         1.3668
 100   0.0000       0.055357         1.5064

                 SPIN DOWN ORBITALS
  NO   OCC          E(Eh)            E(eV)
   0   1.0000     -24.729673      -672.9286
   1   1.0000     -24.729146      -672.9143
   2   1.0000     -24.728301      -672.8913
   3   1.0000     -24.727842      -672.8788
   4   1.0000     -24.726707      -672.8479
   5   1.0000     -24.726549      -672.8436
   6   1.0000     -24.725065      -672.8032
   7   1.0000     -24.722205      -672.7254
   8   1.0000     -24.721483      -672.7057
   9   1.0000     -24.720852      -672.6886
  10   1.0000     -24.710751      -672.4137
  11   1.0000     -24.710597      -672.4095
  12   1.0000     -24.686221      -671.7462
  13   1.0000     -24.685912      -671.7378
  14   1.0000     -19.049336      -518.3588
  15   1.0000     -19.047436      -518.3071
  16   1.0000     -10.381162      -282.4858
  17   1.0000     -10.381010      -282.4816
  18   1.0000     -10.379910      -282.4517
  19   1.0000     -10.374605      -282.3074
  20   1.0000     -10.359532      -281.8972
  21   1.0000     -10.340819      -281.3880
  22   1.0000     -10.322128      -280.8794
  23   1.0000     -10.233536      -278.4687
  24   1.0000      -1.336591       -36.3705
  25   1.0000      -1.323515       -36.0147
  26   1.0000      -1.314590       -35.7718
  27   1.0000      -1.308716       -35.6120
  28   1.0000      -1.303268       -35.4637
  29   1.0000      -1.297534       -35.3077
  30   1.0000      -1.269585       -34.5472
  31   1.0000      -1.266357       -34.4593
  32   1.0000      -1.260487       -34.2996
  33   1.0000      -1.255478       -34.1633
  34   1.0000      -1.250381       -34.0246
  35   1.0000      -1.247871       -33.9563
  36   1.0000      -1.239272       -33.7223
  37   1.0000      -1.211001       -32.9530
  38   1.0000      -1.028967       -27.9996
  39   1.0000      -0.944629       -25.7047
  40   1.0000      -0.841127       -22.8882
  41   1.0000      -0.817664       -22.2498
  42   1.0000      -0.785666       -21.3790
  43   1.0000      -0.743779       -20.2393
  44   1.0000      -0.697251       -18.9732
  45   1.0000      -0.665055       -18.0971
  46   1.0000      -0.661467       -17.9994
  47   1.0000      -0.629271       -17.1233
  48   1.0000      -0.627328       -17.0705
  49   1.0000      -0.618118       -16.8198
  50   1.0000      -0.608125       -16.5479
  51   1.0000      -0.603951       -16.4343
  52   1.0000      -0.601824       -16.3765
  53   1.0000      -0.588003       -16.0004
  54   1.0000      -0.587376       -15.9833
  55   1.0000      -0.580437       -15.7945
  56   1.0000      -0.571454       -15.5500
  57   1.0000      -0.566178       -15.4065
  58   1.0000      -0.563647       -15.3376
  59   1.0000      -0.554154       -15.0793
  60   1.0000      -0.539878       -14.6908
  61   1.0000      -0.511903       -13.9296
  62   1.0000      -0.494741       -13.4626
  63   1.0000      -0.493309       -13.4236
  64   1.0000      -0.487527       -13.2663
  65   1.0000      -0.483251       -13.1499
  66   1.0000      -0.476772       -12.9736
  67   1.0000      -0.469138       -12.7659
  68   1.0000      -0.465765       -12.6741
  69   1.0000      -0.462340       -12.5809
  70   1.0000      -0.461350       -12.5540
  71   1.0000      -0.454870       -12.3776
  72   1.0000      -0.453531       -12.3412
  73   1.0000      -0.447544       -12.1783
  74   1.0000      -0.444387       -12.0924
  75   1.0000      -0.442303       -12.0357
  76   1.0000      -0.434980       -11.8364
  77   1.0000      -0.432462       -11.7679
  78   1.0000      -0.431166       -11.7326
  79   1.0000      -0.430797       -11.7226
  80   1.0000      -0.426528       -11.6064
  81   1.0000      -0.423016       -11.5109
  82   1.0000      -0.419570       -11.4171
  83   1.0000      -0.417941       -11.3727
  84   1.0000      -0.411996       -11.2110
  85   1.0000      -0.402456       -10.9514
  86   1.0000      -0.397799       -10.8247
  87   1.0000      -0.388646       -10.5756
  88   1.0000      -0.386540       -10.5183
  89   1.0000      -0.375290       -10.2122
  90   1.0000      -0.356713        -9.7066
  91   1.0000      -0.323440        -8.8013
  92   1.0000      -0.241636        -6.5753
  93   1.0000      -0.225422        -6.1341
  94   1.0000      -0.223255        -6.0751
  95   0.0000      -0.094025        -2.5585
  96   0.0000      -0.004013        -0.1092
  97   0.0000       0.002188         0.0595
  98   0.0000       0.024635         0.6704
  99   0.0000       0.052775         1.4361

MULLIKEN ATOMIC CHARGES AND SPIN POPULATIONS
--------------------------------------------
   0 C :    0.211748   -0.000001
   1 O :   -0.508885    0.000014
   2 O :   -0.523143    0.000001
   3 C :    0.343422   -0.000026
   4 C :    0.299489    0.000031
   5 C :    0.330688    0.000097
   6 C :    0.315188    0.000480
   7 C :    0.301953    0.006664
   8 C :    0.409676   -0.016829
   9 C :    0.259244    0.845761
  10 F :   -0.207625    0.000001
  11 F :   -0.213789    0.000001
  12 F :   -0.179095    0.000000
  13 F :   -0.186302   -0.000001
  14 F :   -0.172311    0.000009
  15 F :   -0.170864   -0.000025
  16 F :   -0.167298   -0.000048
  17 F :   -0.167022   -0.000034
  18 F :   -0.170213    0.000624
  19 F :   -0.167947    0.000317
  20 F :   -0.175740    0.032574
  21 F :   -0.167057   -0.000952
  22 F :   -0.146691    0.067221
  23 F :   -0.147426    0.064122
Sum of atomic charges         :   -1.0000000

LOEWDIN ATOMIC CHARGES AND SPIN POPULATIONS
-------------------------------------------
   0 C :   -0.696365    0.000000
   1 O :   -0.048108    0.000011
   2 O :   -0.054720    0.000002
   3 C :   -0.450761   -0.000005
   4 C :   -0.468655   -0.000042
   5 C :   -0.469802   -0.000093
   6 C :   -0.470426   -0.000606
   7 C :   -0.470878    0.003663
   8 C :   -0.502542    0.071248
   9 C :   -0.391275    0.716715
  10 F :    0.170725    0.000001
  11 F :    0.163222    0.000001
  12 F :    0.216567    0.000003
  13 F :    0.210053   -0.000001
  14 F :    0.222369    0.000017
  15 F :    0.224171    0.000010
  16 F :    0.228191    0.000069
  17 F :    0.228135    0.000057
  18 F :    0.230144    0.001907
  19 F :    0.229360    0.001170
  20 F :    0.203610    0.032043
  21 F :    0.228435   -0.000809
  22 F :    0.234353    0.089124
  23 F :    0.234197    0.085515

  Mayer bond orders larger than 0.100000
B(  0-C ,  1-O ) :   1.8538 B(  0-C ,  2-O ) :   1.8247 B(  0-C ,  3-C ) :   0.8377
B(  3-C ,  4-C ) :   0.9315 B(  3-C , 10-F ) :   1.0343 B(  3-C , 11-F ) :   1.0252
B(  4-C ,  5-C ) :   0.9236 B(  4-C , 12-F ) :   1.0639 B(  4-C , 13-F ) :   1.0585
B(  5-C ,  6-C ) :   0.9322 B(  5-C , 14-F ) :   1.0686 B(  5-C , 15-F ) :   1.0796
B(  6-C ,  7-C ) :   0.9341 B(  6-C , 16-F ) :   1.0802 B(  6-C , 17-F ) :   1.0798
B(  7-C ,  8-C ) :   0.9346 B(  7-C , 18-F ) :   1.0727 B(  7-C , 19-F ) :   1.0809
B(  8-C ,  9-C ) :   0.8933 B(  8-C , 20-F ) :   1.0537 B(  8-C , 21-F ) :   1.0924
B(  9-C , 22-F ) :   1.1200 B(  9-C , 23-F ) :   1.1276

Dispersion correction           -0.008136750
FINAL SINGLE POINT ENERGY     -1853.098155905569

DIPOLE MOMENT
-------------

Method             : SCF
Type of density    : Electron Density
Multiplicity       :   2
Irrep              :   0
Energy             : -1853.0900191556347636 Eh
Relativity type    :
Basis              : AO
                                X                 Y                 Z
Electronic contribution:    -17.210902368      -0.430861648       1.758112055
Nuclear contribution   :      8.533117618       0.106110131      -0.990645884
                        -----------------------------------------
Total Dipole Moment    :     -8.677784750      -0.324751517       0.767466171
                        -----------------------------------------
Magnitude (a.u.)       :      8.717707040
Magnitude (Debye)      :     22.158650319

VIBRATIONAL FREQUENCIES
-----------------------

Scaling factor for frequencies =  1.000000000  (already applied!)

     0:       0.00 cm**-1
     1:       0.00 cm**-1
     2:       0.00 cm**-1
     3:       0.00 cm**-1
     4:       0.00 cm**-1
     5:       0.00 cm**-1
     6:      30.61 cm**-1
     7:      34.09 cm**-1
     8:      42.56 cm**-1
     9:      48.73 cm**-1
    10:      59.63 cm**-1
    11:      66.31 cm**-1
    12:      71.07 cm**-1
    13:      74.57 cm**-1
    14:     120.67 cm**-1
    15:     138.11 cm**-1
    16:     164.41 cm**-1
    17:     192.17 cm**-1
    18:     202.90 cm**-1
    19:     207.93 cm**-1
    20:     215.73 cm**-1
    21:     231.99 cm**-1
    22:     241.08 cm**-1
    23:     253.24 cm**-1
    24:     259.73 cm**-1
    25:     263.75 cm**-1
    26:     298.13 cm**-1
    27:     310.40 cm**-1
    28:     318.38 cm**-1
    29:     345.91 cm**-1
    30:     354.65 cm**-1
    31:     368.68 cm**-1
    32:     371.93 cm**-1
    33:     378.04 cm**-1
    34:     382.05 cm**-1
    35:     422.21 cm**-1
    36:     465.53 cm**-1
    37:     512.63 cm**-1
    38:     539.30 cm**-1
    39:     550.80 cm**-1
    40:     564.08 cm**-1
    41:     581.92 cm**-1
    42:     586.78 cm**-1
    43:     610.32 cm**-1
    44:     645.56 cm**-1
    45:     665.12 cm**-1
    46:     687.46 cm**-1
    47:     725.66 cm**-1
    48:     754.53 cm**-1
    49:     778.60 cm**-1
    50:     803.99 cm**-1
    51:     883.33 cm**-1
    52:    1017.81 cm**-1
    53:    1083.56 cm**-1
    54:    1105.79 cm**-1
    55:    1113.36 cm**-1
    56:    1133.43 cm**-1
    57:    1144.82 cm**-1
    58:    1154.97 cm**-1
    59:    1161.85 cm**-1
    60:    1169.78 cm**-1
    61:    1177.33 cm**-1
    62:    1186.18 cm**-1
    63:    1214.18 cm**-1
    64:    1242.82 cm**-1
    65:    1267.72 cm**-1
    66:    1278.55 cm**-1
    67:    1297.35 cm**-1
    68:    1333.67 cm**-1
    69:    1376.40 cm**-1
    70:    1397.83 cm**-1
    71:    1758.59 cm**-1

IR SPECTRUM
-----------

 Mode   freq       eps      Int      T**2         TX        TY        TZ
       cm**-1   L/(mol*cm) km/mol    a.u.
----------------------------------------------------------------------------
  6:     30.61   0.000519    2.62  0.005292  (-0.019023 -0.000293 -0.070211)
  7:     34.09   0.000008    0.04  0.000075  (-0.003600  0.003174 -0.007220)
  8:     42.56   0.000745    3.77  0.005466  (-0.006617 -0.069585 -0.024087)
  9:     48.73   0.000013    0.07  0.000085  ( 0.003561  0.001984  0.008297)
 10:     59.63   0.000033    0.17  0.000172  (-0.001288  0.013009 -0.000815)
 11:     66.31   0.000160    0.81  0.000753  ( 0.008007 -0.018475  0.018637)
 12:     71.07   0.000224    1.13  0.000985  (-0.012418  0.007832 -0.027733)
 13:     74.57   0.000393    1.98  0.001644  (-0.013721  0.032976 -0.019183)
 14:    120.67   0.000789    3.99  0.002040  (-0.033516  0.009773 -0.028648)
 15:    138.11   0.000525    2.65  0.001185  (-0.034373  0.001720 -0.000960)
 16:    164.41   0.000233    1.18  0.000441  (-0.017996  0.009154 -0.005809)
 17:    192.17   0.003091   15.62  0.005020  (-0.001588 -0.004823 -0.070669)
 18:    202.90   0.000154    0.78  0.000237  ( 0.015103 -0.002754  0.001147)
 19:    207.93   0.000160    0.81  0.000240  ( 0.002956  0.014429  0.004770)
 20:    215.73   0.000460    2.33  0.000666  (-0.002415  0.021118 -0.014636)
 21:    231.99   0.000177    0.90  0.000238  (-0.009212 -0.004509 -0.011540)
 22:    241.08   0.000051    0.26  0.000066  (-0.007832  0.002066  0.000315)
 23:    253.24   0.000124    0.63  0.000153  (-0.006552  0.001743  0.010357)
 24:    259.73   0.000013    0.07  0.000016  ( 0.003457 -0.000058  0.001915)
 25:    263.75   0.000233    1.18  0.000276  ( 0.004844 -0.001740  0.015789)
 26:    298.13   0.001726    8.72  0.001806  (-0.041472  0.007979  0.004786)
 27:    310.40   0.000222    1.12  0.000224  ( 0.014222 -0.002240 -0.004052)
 28:    318.38   0.000193    0.97  0.000189  (-0.008424  0.010475 -0.002852)
 29:    345.91   0.000038    0.19  0.000034  ( 0.005328 -0.000032  0.002457)
 30:    354.65   0.000716    3.62  0.000630  ( 0.019302  0.000003  0.016037)
 31:    368.68   0.000215    1.08  0.000182  (-0.011663 -0.000824 -0.006698)
 32:    371.93   0.000302    1.52  0.000253  (-0.015744  0.001156 -0.001947)
 33:    378.04   0.000037    0.19  0.000030  ( 0.005240 -0.000686  0.001579)
 34:    382.05   0.000023    0.12  0.000019  (-0.004018 -0.001569 -0.000369)
 35:    422.21   0.000545    2.76  0.000403  ( 0.017168 -0.009451 -0.004358)
 36:    465.53   0.003809   19.25  0.002553  ( 0.048898 -0.009671  0.008289)
 37:    512.63   0.002278   11.51  0.001387  (-0.033400 -0.008489 -0.014110)
 38:    539.30   0.019079   96.42  0.011040  ( 0.101990 -0.020269  0.015077)
 39:    550.80   0.010723   54.19  0.006075  (-0.065605 -0.041913 -0.003793)
 40:    564.08   0.002142   10.83  0.001185  ( 0.007033 -0.028686  0.017683)
 41:    581.92   0.002611   13.19  0.001400  ( 0.030945 -0.003371 -0.020761)
 42:    586.78   0.002387   12.06  0.001269  (-0.031977  0.014387  0.006312)
 43:    610.32   0.002003   10.12  0.001024  ( 0.029685 -0.011303  0.003889)
 44:    645.56   0.000903    4.56  0.000437  ( 0.018085  0.003300  0.009928)
 45:    665.12   0.041215  208.28  0.019337  ( 0.138896  0.006708 -0.000691)
 46:    687.46   0.001206    6.09  0.000547  ( 0.021346  0.003075 -0.009071)
 47:    725.66   0.000497    2.51  0.000214  ( 0.013073 -0.002044 -0.006223)
 48:    754.53   0.004716   23.83  0.001951  ( 0.043748  0.003907 -0.004634)
 49:    778.60   0.001156    5.84  0.000463  ( 0.003182  0.021073 -0.003048)
 50:    803.99   0.018947   95.75  0.007354  (-0.062664 -0.026940  0.051977)
 51:    883.33   0.005154   26.05  0.001821  (-0.041646 -0.007702  0.005210)
 52:   1017.81   0.008693   43.93  0.002665  ( 0.048916 -0.006117  0.015334)
 53:   1083.56   0.042245  213.49  0.012166  (-0.022346 -0.102823  0.033084)
 54:   1105.79   0.040861  206.50  0.011531  ( 0.016593  0.073089  0.076903)
 55:   1113.36   0.014634   73.96  0.004102  ( 0.019920  0.002775 -0.060806)
 56:   1133.43   0.019362   97.85  0.005331  (-0.009400  0.025282 -0.067847)
 57:   1144.82   0.095766  483.96  0.026104  ( 0.005865  0.154210 -0.047846)
 58:   1154.97   0.047745  241.28  0.012900  ( 0.010630 -0.110704 -0.023062)
 59:   1161.85   0.019278   97.42  0.005178  ( 0.012915  0.066776  0.023496)
 60:   1169.78   0.040845  206.41  0.010896  (-0.006298  0.004780  0.104085)
 61:   1177.33   0.185167  935.76  0.049081  (-0.016809 -0.020633 -0.219937)
 62:   1186.18   0.004114   20.79  0.001082  ( 0.004221  0.018288  0.027021)
 63:   1214.18   0.008047   40.66  0.002068  ( 0.024282 -0.005489 -0.038057)
 64:   1242.82   0.011385   57.53  0.002859  (-0.006082  0.030454  0.043523)
 65:   1267.72   0.038559  194.86  0.009492  ( 0.034073 -0.000058 -0.091273)
 66:   1278.55   0.032198  162.71  0.007859  (-0.024766  0.017474  0.083306)
 67:   1297.35   0.004492   22.70  0.001080  (-0.019645  0.011679  0.023625)
 68:   1333.67   0.008223   41.56  0.001924  (-0.027188 -0.031397  0.014112)
 69:   1376.40   0.042688  215.73  0.009678  (-0.096210  0.019479  0.006523)
 70:   1397.83   0.024045  121.52  0.005368  (-0.063289 -0.027750  0.024342)
 71:   1758.59   0.160376  810.47  0.028459  ( 0.026623 -0.153889 -0.063783)

--------------------------
THERMOCHEMISTRY AT 298.15K
--------------------------

Temperature         ...   298.15 K
Pressure            ...     1.00 atm
Total Mass          ...   394.06 AMU
Quasi RRHO          ...     True
Cut-Off Frequency   ...     1.00 cm^-1

Throughout the following assumptions are being made:
  (1) The electronic state is orbitally nondegenerate
      but the spin degeneracy is treated
  (2) There are no thermally accessible electronically excited states
  (3) Hindered rotations indicated by low frequency modes are not
      treated as such but are treated as vibrations and this may
      cause some error
  (4) All equations used are the standard statistical mechanics
      equations for an ideal gas
  (5) All vibrations are strictly harmonic

freq.      30.61  E(vib)   ...       0.55
freq.      34.09  E(vib)   ...       0.55
freq.      42.56  E(vib)   ...       0.53
freq.      48.73  E(vib)   ...       0.53
freq.      59.63  E(vib)   ...       0.51
freq.      66.31  E(vib)   ...       0.50
freq.      71.07  E(vib)   ...       0.50
freq.      74.57  E(vib)   ...       0.49
freq.     120.67  E(vib)   ...       0.44
freq.     138.11  E(vib)   ...       0.42
freq.     164.41  E(vib)   ...       0.39
freq.     192.17  E(vib)   ...       0.36
freq.     202.90  E(vib)   ...       0.35
freq.     207.93  E(vib)   ...       0.34
freq.     215.73  E(vib)   ...       0.34
freq.     231.99  E(vib)   ...       0.32
freq.     241.08  E(vib)   ...       0.31
freq.     253.24  E(vib)   ...       0.30
freq.     259.73  E(vib)   ...       0.30
freq.     263.75  E(vib)   ...       0.29
freq.     298.13  E(vib)   ...       0.27
freq.     310.40  E(vib)   ...       0.26
freq.     318.38  E(vib)   ...       0.25
freq.     345.91  E(vib)   ...       0.23
freq.     354.65  E(vib)   ...       0.22
freq.     368.68  E(vib)   ...       0.21
freq.     371.93  E(vib)   ...       0.21
freq.     378.04  E(vib)   ...       0.21
freq.     382.05  E(vib)   ...       0.21
freq.     422.21  E(vib)   ...       0.18
freq.     465.53  E(vib)   ...       0.16
freq.     512.63  E(vib)   ...       0.13
freq.     539.30  E(vib)   ...       0.12
freq.     550.80  E(vib)   ...       0.12
freq.     564.08  E(vib)   ...       0.11
freq.     581.92  E(vib)   ...       0.11
freq.     586.78  E(vib)   ...       0.11
freq.     610.32  E(vib)   ...       0.10
freq.     645.56  E(vib)   ...       0.09
freq.     665.12  E(vib)   ...       0.08
freq.     687.46  E(vib)   ...       0.07
freq.     725.66  E(vib)   ...       0.06
freq.     754.53  E(vib)   ...       0.06
freq.     778.60  E(vib)   ...       0.05
freq.     803.99  E(vib)   ...       0.05
freq.     883.33  E(vib)   ...       0.04
freq.    1017.81  E(vib)   ...       0.02
freq.    1083.56  E(vib)   ...       0.02
freq.    1105.79  E(vib)   ...       0.02
freq.    1113.36  E(vib)   ...       0.01
freq.    1133.43  E(vib)   ...       0.01
freq.    1144.82  E(vib)   ...       0.01
freq.    1154.97  E(vib)   ...       0.01
freq.    1161.85  E(vib)   ...       0.01
freq.    1169.78  E(vib)   ...       0.01
freq.    1177.33  E(vib)   ...       0.01
freq.    1186.18  E(vib)   ...       0.01
freq.    1214.18  E(vib)   ...       0.01
freq.    1242.82  E(vib)   ...       0.01
freq.    1267.72  E(vib)   ...       0.01
freq.    1278.55  E(vib)   ...       0.01
freq.    1297.35  E(vib)   ...       0.01
freq.    1333.67  E(vib)   ...       0.01
freq.    1376.40  E(vib)   ...       0.01
freq.    1397.83  E(vib)   ...       0.00
freq.    1758.59  E(vib)   ...       0.00

------------
INNER ENERGY
------------

The inner energy is: U= E(el) + E(ZPE) + E(vib) + E(rot) + E(trans)
    E(el)   - is the total energy from the electronic structure calculation
              = E(kin-el) + E(nuc-el) + E(el-el) + E(nuc-nuc)
    E(ZPE)  - the the zero temperature vibrational energy from the frequency calculation
    E(vib)  - the the finite temperature correction to E(ZPE) due to population
              of excited vibrational states
    E(rot)  - is the rotational thermal energy
    E(trans)- is the translational thermal energy

Summary of contributions to the inner energy U:
Electronic energy                ...  -1853.09815591 Eh
Zero point energy                ...      0.09441012 Eh      59.24 kcal/mol
Thermal vibrational correction   ...      0.01948835 Eh      12.23 kcal/mol
Thermal rotational correction    ...      0.00141627 Eh       0.89 kcal/mol
Thermal translational correction ...      0.00141627 Eh       0.89 kcal/mol
-----------------------------------------------------------------------
Total thermal energy                  -1852.98142489 Eh

Summary of corrections to the electronic energy:
(perhaps to be used in another calculation)
Total thermal correction                  0.02232089 Eh      14.01 kcal/mol
Non-thermal (ZPE) correction              0.09441012 Eh      59.24 kcal/mol
-----------------------------------------------------------------------
Total correction                          0.11673102 Eh      73.25 kcal/mol

--------
ENTHALPY
--------

The enthalpy is H = U + kB*T
                kB is Boltzmann's constant
Total thermal energy              ...  -1852.98142489 Eh
Thermal Enthalpy correction       ...      0.00094421 Eh       0.59 kcal/mol
-----------------------------------------------------------------------
Total Enthalpy                    ...  -1852.98048068 Eh

Note: Only C1 symmetry has been detected, increase convergence thresholds
      if your molecule has a higher symmetry. Symmetry factor of 1.0 is
      used for the rotational entropy correction.

Note: Rotational entropy computed according to Herzberg
Infrared and Raman Spectra, Chapter V,1, Van Nostrand Reinhold, 1945
Point Group:  C1, Symmetry Number:   1
Rotational constants in cm-1:     0.022879     0.004117     0.004089

Vibrational entropy computed according to the QRRHO of S. Grimme
Chem.Eur.J. 2012 18 9955 using a reference frequency of 100.0 cm-1

-------
ENTROPY
-------

The entropy contributions are T*S = T*(S(el)+S(vib)+S(rot)+S(trans))
     S(el)   - electronic entropy
     S(vib)  - vibrational entropy
     S(rot)  - rotational entropy
     S(trans)- translational entropy
The entropies will be listed as multiplied by the temperature to get
units of energy

Electronic entropy                ...      0.00065446 Eh      0.41 kcal/mol
Vibrational entropy               ...      0.03482242 Eh     21.85 kcal/mol
Rotational entropy                ...      0.01648352 Eh     10.34 kcal/mol
Translational entropy             ...      0.02081341 Eh     13.06 kcal/mol
-----------------------------------------------------------------------

                             ****ORCA TERMINATED NORMALLY****
TOTAL RUN TIME: 0 days 0 hours 22 minutes 52 seconds 469 msec
