                         Program Version 6.0.1  -  RELEASE   -
|  1> !B3LYP def2-TZVP opt d3 TightSCF SlowConv defgrid2
|  2>
|  3> %pal
|  4> nprocs 20
|  5> end
|  6>
|  7> %scf
|  8> MaxIter 1500
|  9> end
| 10>
| 11> %maxcore 8000
| 12>
| 13> !CPCM
| 14> %cpcm smd true
| 15> SMDsolvent "ACETONITRILE"
| 16> end
| 17>
| 18> * xyz 0 2
| 19> 6        4.790427000     -0.033865800     -0.529943200
| 20> 8        5.449345000     -1.206924000     -0.894594600
| 21> 8        4.978223000      1.323071000     -0.737377200
| 22> 6        3.506687600     -0.338741600      0.376153800
| 23> 6        2.222300000      0.400524800     -0.110681600
| 24> 6        0.900506800     -0.386389800      0.175703000
| 25> 6       -0.395261200      0.487294000      0.065549000
| 26> 6       -1.705693600     -0.364773800     -0.068373600
| 27> 6       -3.005136200      0.445344800      0.258164000
| 28> 6       -4.319880200     -0.214526000     -0.270540800
| 29> 9        3.211587400     -1.692050400      0.412735200
| 30> 9        3.741061800      0.055285800      1.689948800
| 31> 9        2.125696800      1.616867800      0.483236600
| 32> 9        2.314152400      0.589704000     -1.455769200
| 33> 9        0.794028800     -1.413561400     -0.700839000
| 34> 9        0.958350600     -0.884509000      1.435093400
| 35> 9       -0.498373400      1.260265600      1.173340200
| 36> 9       -0.299075000      1.289512600     -1.020910800
| 37> 9       -1.641790400     -1.418189000      0.779523800
| 38> 9       -1.792381400     -0.831391600     -1.336863600
| 39> 9       -2.918792200      1.679227200     -0.295171200
| 40> 9       -3.119771000      0.573779800      1.598579800
| 41> 9       -4.383115600     -1.504377600      0.089127600
| 42> 9       -5.365669800      0.430528600      0.260394200
| 43> 1        5.903122371     -2.014774547     -1.145719253
| 44> *
| 45>
| 46>                          ****END OF INPUT****
 Total Charge           Charge          ....    0
 Multiplicity           Mult            ....    2
 Number of Electrons    NEL             ....  191
Dispersion correction           -0.042996224
FINAL SINGLE POINT ENERGY     -1853.607854219494
Dispersion correction             ... done (  0.0 sec)
Dispersion correction           -0.043248068
FINAL SINGLE POINT ENERGY     -1853.660298821212
Dispersion correction             ... done (  0.0 sec)
Dispersion correction           -0.043410788
FINAL SINGLE POINT ENERGY     -1853.668787839532
Dispersion correction             ... done (  0.1 sec)
FINAL SINGLE POINT ENERGY     -1853.674598838872
FINAL SINGLE POINT ENERGY     -1853.674704870924
FINAL SINGLE POINT ENERGY     -1853.675280002470
FINAL SINGLE POINT ENERGY     -1853.676383933564
FINAL SINGLE POINT ENERGY     -1853.677476544565
FINAL SINGLE POINT ENERGY     -1853.679664526805
FINAL SINGLE POINT ENERGY     -1853.684035102208
FINAL SINGLE POINT ENERGY     -1853.717103052380
FINAL SINGLE POINT ENERGY     -1853.717141566773
FINAL SINGLE POINT ENERGY     -1853.717164900317
FINAL SINGLE POINT ENERGY     -1853.717196154437
FINAL SINGLE POINT ENERGY     -1853.717208672091
FINAL SINGLE POINT ENERGY     -1853.717226243017
FINAL SINGLE POINT ENERGY     -1853.717234216895
Dispersion correction             ... done (  0.0 sec)
Dispersion correction           -0.043435700
FINAL SINGLE POINT ENERGY     -1853.717238593482
Dispersion correction             ... done (  0.0 sec)
Dispersion correction           -0.043434939
FINAL SINGLE POINT ENERGY     -1853.717240380318
Dispersion correction             ... done (  0.0 sec)
                    ***********************HURRAY********************

CARTESIAN COORDINATES (ANGSTROEM)
---------------------------------
  C      4.780959   -0.038299   -0.260507
  O      5.143268   -0.823006   -1.262565
  O      5.323821    0.960531    0.114375
  C      3.485697   -0.557234    0.424000
  C      2.219346    0.131097   -0.180186
  C      0.863117   -0.535756    0.240174
  C     -0.378445    0.400299    0.024312
  C     -1.741923   -0.374530    0.025209
  C     -2.992432    0.541972    0.223708
  C     -4.278808   -0.165351   -0.157894
  F      3.362717   -1.896052    0.286481
  F      3.556731   -0.264715    1.737538
  F      2.223394    1.423465    0.205077
  F      2.318371    0.084727   -1.526054
  F      0.697587   -1.657182   -0.489488
  F      0.921296   -0.873420    1.542725
  F     -0.394918    1.321017    1.007104
  F     -0.247633    1.031381   -1.159519
  F     -1.727213   -1.293394    1.012670
  F     -1.872357   -1.010725   -1.156525
  F     -2.873655    1.641337   -0.552222
  F     -3.032776    0.952414    1.521213
  F     -4.505286   -1.309798    0.462886
  F     -5.343608    0.614892   -0.162307
  H      5.943299   -0.456340   -1.689440

 Multiplicity           Mult            ....    2
 Number of Electrons    NEL             ....  191
 Basis Dimension        Dim             ....  750

ORBITAL ENERGIES
----------------
                 SPIN UP ORBITALS
  NO   OCC          E(Eh)            E(eV)
   0   1.0000     -24.750561      -673.4970
   1   1.0000     -24.749735      -673.4745
   2   1.0000     -24.745536      -673.3603
   3   1.0000     -24.745378      -673.3560
   4   1.0000     -24.745061      -673.3473
   5   1.0000     -24.744944      -673.3442
   6   1.0000     -24.744796      -673.3401
   7   1.0000     -24.744351      -673.3280
   8   1.0000     -24.744154      -673.3227
   9   1.0000     -24.743452      -673.3036
  10   1.0000     -24.739929      -673.2077
  11   1.0000     -24.735364      -673.0835
  12   1.0000     -24.735307      -673.0819
  13   1.0000     -24.733385      -673.0296
  14   1.0000     -19.207900      -522.6735
  15   1.0000     -19.154716      -521.2263
  16   1.0000     -10.410827      -283.2930
  17   1.0000     -10.410438      -283.2824
  18   1.0000     -10.408315      -283.2247
  19   1.0000     -10.406502      -283.1753
  20   1.0000     -10.404465      -283.1199
  21   1.0000     -10.396921      -282.9146
  22   1.0000     -10.377843      -282.3955
  23   1.0000     -10.346871      -281.5527
  24   1.0000      -1.337479       -36.3947
  25   1.0000      -1.327885       -36.1336
  26   1.0000      -1.320552       -35.9341
  27   1.0000      -1.310959       -35.6730
  28   1.0000      -1.309443       -35.6318
  29   1.0000      -1.302154       -35.4334
  30   1.0000      -1.301733       -35.4220
  31   1.0000      -1.267902       -34.5014
  32   1.0000      -1.264058       -34.3968
  33   1.0000      -1.260494       -34.2998
  34   1.0000      -1.254377       -34.1333
  35   1.0000      -1.251793       -34.0630
  36   1.0000      -1.245820       -33.9005
  37   1.0000      -1.244666       -33.8691
  38   1.0000      -1.147273       -31.2189
  39   1.0000      -1.063150       -28.9298
  40   1.0000      -0.852628       -23.2012
  41   1.0000      -0.837765       -22.7967
  42   1.0000      -0.814085       -22.1524
  43   1.0000      -0.779472       -21.2105
  44   1.0000      -0.736155       -20.0318
  45   1.0000      -0.696697       -18.9581
  46   1.0000      -0.681756       -18.5515
  47   1.0000      -0.669656       -18.2223
  48   1.0000      -0.648521       -17.6472
  49   1.0000      -0.646990       -17.6055
  50   1.0000      -0.636734       -17.3264
  51   1.0000      -0.630177       -17.1480
  52   1.0000      -0.624942       -17.0055
  53   1.0000      -0.622812       -16.9476
  54   1.0000      -0.612588       -16.6694
  55   1.0000      -0.608366       -16.5545
  56   1.0000      -0.604529       -16.4501
  57   1.0000      -0.601352       -16.3636
  58   1.0000      -0.591377       -16.0922
  59   1.0000      -0.589902       -16.0520
  60   1.0000      -0.583462       -15.8768
  61   1.0000      -0.574572       -15.6349
  62   1.0000      -0.557744       -15.1770
  63   1.0000      -0.521702       -14.1962
  64   1.0000      -0.518485       -14.1087
  65   1.0000      -0.516503       -14.0548
  66   1.0000      -0.509054       -13.8521
  67   1.0000      -0.506732       -13.7889
  68   1.0000      -0.503153       -13.6915
  69   1.0000      -0.496916       -13.5218
  70   1.0000      -0.491907       -13.3855
  71   1.0000      -0.490089       -13.3360
  72   1.0000      -0.489237       -13.3128
  73   1.0000      -0.485338       -13.2067
  74   1.0000      -0.481896       -13.1131
  75   1.0000      -0.479087       -13.0366
  76   1.0000      -0.474014       -12.8986
  77   1.0000      -0.468412       -12.7462
  78   1.0000      -0.466136       -12.6842
  79   1.0000      -0.462173       -12.5764
  80   1.0000      -0.457964       -12.4618
  81   1.0000      -0.457306       -12.4439
  82   1.0000      -0.453924       -12.3519
  83   1.0000      -0.450406       -12.2562
  84   1.0000      -0.449274       -12.2254
  85   1.0000      -0.445570       -12.1246
  86   1.0000      -0.444768       -12.1028
  87   1.0000      -0.443107       -12.0576
  88   1.0000      -0.439005       -11.9459
  89   1.0000      -0.432225       -11.7614
  90   1.0000      -0.416571       -11.3355
  91   1.0000      -0.388338       -10.5672
  92   1.0000      -0.361424        -9.8348
  93   1.0000      -0.354897        -9.6573
  94   1.0000      -0.318406        -8.6643
  95   1.0000      -0.265925        -7.2362
  96   0.0000      -0.053847        -1.4652
  97   0.0000      -0.008301        -0.2259
  98   0.0000       0.006571         0.1788
  99   0.0000       0.030482         0.8294
 100   0.0000       0.037369         1.0169

                 SPIN DOWN ORBITALS
  NO   OCC          E(Eh)            E(eV)
   0   1.0000     -24.746818      -673.3951
   1   1.0000     -24.745944      -673.3714
   2   1.0000     -24.745537      -673.3603
   3   1.0000     -24.745373      -673.3558
   4   1.0000     -24.745059      -673.3473
   5   1.0000     -24.744920      -673.3435
   6   1.0000     -24.744797      -673.3401
   7   1.0000     -24.744154      -673.3227
   8   1.0000     -24.744123      -673.3218
   9   1.0000     -24.743452      -673.3036
  10   1.0000     -24.739895      -673.2068
  11   1.0000     -24.735364      -673.0835
  12   1.0000     -24.733830      -673.0417
  13   1.0000     -24.733385      -673.0296
  14   1.0000     -19.207900      -522.6735
  15   1.0000     -19.154716      -521.2263
  16   1.0000     -10.410840      -283.2934
  17   1.0000     -10.410444      -283.2826
  18   1.0000     -10.408366      -283.2260
  19   1.0000     -10.406504      -283.1754
  20   1.0000     -10.403745      -283.1003
  21   1.0000     -10.396922      -282.9146
  22   1.0000     -10.362258      -281.9714
  23   1.0000     -10.346871      -281.5527
  24   1.0000      -1.337170       -36.3863
  25   1.0000      -1.325334       -36.0642
  26   1.0000      -1.316223       -35.8163
  27   1.0000      -1.309710       -35.6390
  28   1.0000      -1.309361       -35.6295
  29   1.0000      -1.302088       -35.4316
  30   1.0000      -1.299382       -35.3580
  31   1.0000      -1.267746       -34.4971
  32   1.0000      -1.260657       -34.3042
  33   1.0000      -1.256379       -34.1878
  34   1.0000      -1.254041       -34.1242
  35   1.0000      -1.251762       -34.0622
  36   1.0000      -1.244666       -33.8691
  37   1.0000      -1.243920       -33.8488
  38   1.0000      -1.147273       -31.2189
  39   1.0000      -1.063150       -28.9298
  40   1.0000      -0.851823       -23.1793
  41   1.0000      -0.835186       -22.7266
  42   1.0000      -0.810272       -22.0486
  43   1.0000      -0.775032       -21.0897
  44   1.0000      -0.731759       -19.9122
  45   1.0000      -0.693437       -18.8694
  46   1.0000      -0.678006       -18.4495
  47   1.0000      -0.669564       -18.2198
  48   1.0000      -0.648013       -17.6333
  49   1.0000      -0.645333       -17.5604
  50   1.0000      -0.636361       -17.3163
  51   1.0000      -0.628436       -17.1006
  52   1.0000      -0.623489       -16.9660
  53   1.0000      -0.621121       -16.9016
  54   1.0000      -0.610256       -16.6059
  55   1.0000      -0.607172       -16.5220
  56   1.0000      -0.601324       -16.3629
  57   1.0000      -0.598572       -16.2880
  58   1.0000      -0.589369       -16.0375
  59   1.0000      -0.587906       -15.9977
  60   1.0000      -0.581772       -15.8308
  61   1.0000      -0.574431       -15.6311
  62   1.0000      -0.529485       -14.4080
  63   1.0000      -0.521677       -14.1955
  64   1.0000      -0.517692       -14.0871
  65   1.0000      -0.516300       -14.0492
  66   1.0000      -0.507183       -13.8011
  67   1.0000      -0.506244       -13.7756
  68   1.0000      -0.502210       -13.6658
  69   1.0000      -0.496110       -13.4999
  70   1.0000      -0.491575       -13.3764
  71   1.0000      -0.489754       -13.3269
  72   1.0000      -0.486827       -13.2472
  73   1.0000      -0.482843       -13.1388
  74   1.0000      -0.478723       -13.0267
  75   1.0000      -0.473809       -12.8930
  76   1.0000      -0.468324       -12.7437
  77   1.0000      -0.467453       -12.7201
  78   1.0000      -0.463507       -12.6127
  79   1.0000      -0.462094       -12.5742
  80   1.0000      -0.457226       -12.4418
  81   1.0000      -0.454833       -12.3766
  82   1.0000      -0.453799       -12.3485
  83   1.0000      -0.449406       -12.2290
  84   1.0000      -0.448715       -12.2101
  85   1.0000      -0.444290       -12.0897
  86   1.0000      -0.444108       -12.0848
  87   1.0000      -0.442550       -12.0424
  88   1.0000      -0.438006       -11.9187
  89   1.0000      -0.431354       -11.7377
  90   1.0000      -0.414978       -11.2921
  91   1.0000      -0.386388       -10.5141
  92   1.0000      -0.361351        -9.8328
  93   1.0000      -0.353556        -9.6207
  94   1.0000      -0.318368        -8.6632
  95   0.0000      -0.104843        -2.8529
  96   0.0000      -0.053764        -1.4630
  97   0.0000      -0.006775        -0.1844
  98   0.0000       0.008328         0.2266
  99   0.0000       0.032227         0.8769

MULLIKEN ATOMIC CHARGES AND SPIN POPULATIONS
--------------------------------------------
   0 C :    0.227523   -0.000004
   1 O :   -0.347084   -0.000000
   2 O :   -0.284786   -0.000004
   3 C :    0.412712   -0.000015
   4 C :    0.307308   -0.000049
   5 C :    0.327848   -0.000156
   6 C :    0.336976   -0.000682
   7 C :    0.323467   -0.003089
   8 C :    0.378916   -0.002494
   9 C :    0.271150    0.845504
  10 F :   -0.176441    0.000000
  11 F :   -0.172267   -0.000001
  12 F :   -0.170156    0.000001
  13 F :   -0.172068   -0.000003
  14 F :   -0.168142    0.000003
  15 F :   -0.166492   -0.000007
  16 F :   -0.166404   -0.000005
  17 F :   -0.167687   -0.000031
  18 F :   -0.169642    0.000636
  19 F :   -0.167897    0.002361
  20 F :   -0.172109    0.000394
  21 F :   -0.176983    0.029944
  22 F :   -0.145278    0.063483
  23 F :   -0.143438    0.064215
  24 H :    0.380974   -0.000000
Sum of atomic charges         :   -0.0000000

LOEWDIN ATOMIC CHARGES AND SPIN POPULATIONS
-------------------------------------------
   0 C :   -0.489326   -0.000004
   1 O :    0.155300   -0.000001
   2 O :    0.136268   -0.000003
   3 C :   -0.449241   -0.000016
   4 C :   -0.452345   -0.000049
   5 C :   -0.454715   -0.000160
   6 C :   -0.455112   -0.000532
   7 C :   -0.452741    0.000019
   8 C :   -0.486474    0.073778
   9 C :   -0.391873    0.706209
  10 F :    0.209860    0.000001
  11 F :    0.215159   -0.000001
  12 F :    0.225003    0.000003
  13 F :    0.221547   -0.000003
  14 F :    0.224406    0.000053
  15 F :    0.226216   -0.000005
  16 F :    0.226529    0.000136
  17 F :    0.225041   -0.000026
  18 F :    0.223562    0.000628
  19 F :    0.226233    0.005134
  20 F :    0.217563    0.001063
  21 F :    0.196795    0.031781
  22 F :    0.233776    0.090519
  23 F :    0.235662    0.091476
  24 H :    0.232908   -0.000000

  Mayer bond orders larger than 0.100000
B(  0-C ,  1-O ) :   1.3086 B(  0-C ,  2-O ) :   2.0841 B(  0-C ,  3-C ) :   0.8999
B(  1-O , 24-H ) :   0.8216 B(  3-C ,  4-C ) :   0.9436 B(  3-C , 10-F ) :   1.0899
B(  3-C , 11-F ) :   1.1055 B(  4-C ,  5-C ) :   0.9349 B(  4-C , 12-F ) :   1.0822
B(  4-C , 13-F ) :   1.0754 B(  5-C ,  6-C ) :   0.9368 B(  5-C , 14-F ) :   1.0824
B(  5-C , 15-F ) :   1.0839 B(  6-C ,  7-C ) :   0.9341 B(  6-C , 16-F ) :   1.0851
B(  6-C , 17-F ) :   1.0813 B(  7-C ,  8-C ) :   0.9268 B(  7-C , 18-F ) :   1.0793
B(  7-C , 19-F ) :   1.0806 B(  8-C ,  9-C ) :   0.9572 B(  8-C , 20-F ) :   1.0800
B(  8-C , 21-F ) :   1.0707 B(  9-C , 22-F ) :   1.1328 B(  9-C , 23-F ) :   1.1354

Dispersion correction           -0.043433771
FINAL SINGLE POINT ENERGY     -1853.717241231424

DIPOLE MOMENT
-------------

Method             : SCF
Type of density    : Electron Density
Multiplicity       :   2
Irrep              :   0
Energy             : -1853.6738074600707478 Eh
Relativity type    :
Basis              : AO
                                X                 Y                 Z
Electronic contribution:    -13.585513551      -0.321120081       2.030259977
Nuclear contribution   :     14.131488302      -0.159631110      -3.041653928
                        -----------------------------------------
Total Dipole Moment    :      0.545974752      -0.480751192      -1.011393951
                        -----------------------------------------
Magnitude (a.u.)       :      1.245844237
Magnitude (Debye)      :      3.166684389

Rotational constants in cm-1:             0.022640             0.004059             0.003967
Rotational constants in MHz :           678.719564           121.699769           118.916411

                             ****ORCA TERMINATED NORMALLY****
TOTAL RUN TIME: 0 days 1 hours 5 minutes 5 seconds 66 msec
