                         Program Version 6.0.1  -  RELEASE   -
|  1> !r2scanh def2-TZVP opt d3 TightSCF SlowConv defgrid2
|  2>
|  3> %pal
|  4> nprocs 20
|  5> end
|  6>
|  7> %scf
|  8> MaxIter 1500
|  9> end
| 10>
| 11> %maxcore 8000
| 12>
| 13> !CPCM
| 14> %cpcm smd true
| 15> SMDsolvent "ACETONITRILE"
| 16> end
| 17>
| 18> * xyz -1 2
| 19> 6        4.870906397      0.061888661     -0.237292510
| 20> 8        5.271940174     -0.267476354     -1.399541711
| 21> 8        5.203187478      1.337876105      0.278273556
| 22> 1        5.668158999      1.786076840     -0.446718784
| 23> 6        3.577190606     -0.417061850      0.325730837
| 24> 6        2.245024540      0.218842756     -0.204004451
| 25> 6        0.891320286     -0.467997151      0.173792354
| 26> 6       -0.382269188      0.419918005     -0.023365189
| 27> 6       -1.728626502     -0.380951428     -0.034067234
| 28> 6       -2.989669377      0.508649937      0.220799218
| 29> 6       -4.341700350     -0.148256685     -0.200457220
| 30> 9        3.454956342     -1.770907039      0.081229207
| 31> 9        3.545488518     -0.229037896      1.697273539
| 32> 9        2.190934323      1.506680122      0.238734203
| 33> 9        2.305906375      0.246046282     -1.564120563
| 34> 9        0.746279290     -1.583774915     -0.584187158
| 35> 9        0.928008200     -0.837544543      1.477151553
| 36> 9       -0.436766777      1.327546928      0.978944699
| 37> 9       -0.285373169      1.079994905     -1.200191876
| 38> 9       -1.690728565     -1.332385248      0.925305417
| 39> 9       -1.863434049     -0.985412705     -1.235071462
| 40> 9       -2.875331257      1.665488073     -0.468927793
| 41> 9       -3.065592445      0.790736220      1.537304067
| 42> 9       -4.452300700     -1.378234719      0.311637220
| 43> 9       -5.347318642      0.600905856      0.263788886
| 44> 9       -4.445219507     -0.217868155     -1.529143803
| 45> *
| 46>
| 47>                          ****END OF INPUT****
 Total Charge           Charge          ....   -1
 Multiplicity           Mult            ....    2
 Number of Electrons    NEL             ....  201
Dispersion correction           -0.008591883
FINAL SINGLE POINT ENERGY     -1953.542201869882
Dispersion correction             ... done (  0.0 sec)
Dispersion correction           -0.008650414
FINAL SINGLE POINT ENERGY     -1953.543717322702
Dispersion correction             ... done (  0.0 sec)
Dispersion correction           -0.008654910
FINAL SINGLE POINT ENERGY     -1953.543770437342
Dispersion correction             ... done (  0.0 sec)
FINAL SINGLE POINT ENERGY     -1953.543781669287
FINAL SINGLE POINT ENERGY     -1953.543787621077
FINAL SINGLE POINT ENERGY     -1953.543791574022
FINAL SINGLE POINT ENERGY     -1953.543794413685
FINAL SINGLE POINT ENERGY     -1953.543796695269
Dispersion correction             ... done (  0.0 sec)
Dispersion correction           -0.008668084
FINAL SINGLE POINT ENERGY     -1953.543792305230
Dispersion correction             ... done (  0.0 sec)
Dispersion correction           -0.008663910
FINAL SINGLE POINT ENERGY     -1953.543798856226
Dispersion correction             ... done (  0.0 sec)
                    ***********************HURRAY********************

CARTESIAN COORDINATES (ANGSTROEM)
---------------------------------
  C      4.835201    0.039013   -0.250685
  O      5.202158   -0.354253   -1.390952
  O      5.151927    1.350643    0.171287
  H      5.635632    1.722405   -0.578539
  C      3.548180   -0.393124    0.359997
  C      2.228250    0.233087   -0.185205
  C      0.887680   -0.459319    0.197054
  C     -0.377165    0.426957    0.005039
  C     -1.708893   -0.380089   -0.039700
  C     -2.964881    0.495263    0.237731
  C     -4.296398   -0.145895   -0.238827
  F      3.398934   -1.747737    0.189597
  F      3.530570   -0.137362    1.712781
  F      2.162356    1.518341    0.236924
  F      2.290762    0.239357   -1.536757
  F      0.742880   -1.566043   -0.559260
  F      0.929412   -0.828628    1.492077
  F     -0.445869    1.305869    1.020546
  F     -0.269020    1.107465   -1.149692
  F     -1.670343   -1.354520    0.884074
  F     -1.832979   -0.941877   -1.253269
  F     -2.839121    1.677726   -0.386028
  F     -3.062836    0.706563    1.556950
  F     -4.384582   -1.402962    0.183134
  F     -5.310975    0.546926    0.266108
  F     -4.385908   -0.124062   -1.561513

 Multiplicity           Mult            ....    2
 Number of Electrons    NEL             ....  201
 Basis Dimension        Dim             ....  781

ORBITAL ENERGIES
----------------
                 SPIN UP ORBITALS
  NO   OCC          E(Eh)            E(eV)
   0   1.0000     -24.731373      -672.9749
   1   1.0000     -24.730248      -672.9443
   2   1.0000     -24.729798      -672.9320
   3   1.0000     -24.729522      -672.9245
   4   1.0000     -24.728655      -672.9009
   5   1.0000     -24.728546      -672.8979
   6   1.0000     -24.727851      -672.8790
   7   1.0000     -24.723962      -672.7732
   8   1.0000     -24.722803      -672.7417
   9   1.0000     -24.715559      -672.5446
  10   1.0000     -24.713565      -672.4903
  11   1.0000     -24.700977      -672.1478
  12   1.0000     -24.698329      -672.0757
  13   1.0000     -24.676039      -671.4692
  14   1.0000     -24.672567      -671.3747
  15   1.0000     -19.102165      -519.7963
  16   1.0000     -19.038063      -518.0520
  17   1.0000     -10.438741      -284.0526
  18   1.0000     -10.382987      -282.5354
  19   1.0000     -10.382662      -282.5266
  20   1.0000     -10.376772      -282.3663
  21   1.0000     -10.365796      -282.0677
  22   1.0000     -10.345751      -281.5222
  23   1.0000     -10.316525      -280.7269
  24   1.0000     -10.206692      -277.7382
  25   1.0000      -1.360447       -37.0197
  26   1.0000      -1.332986       -36.2724
  27   1.0000      -1.316914       -35.8351
  28   1.0000      -1.310661       -35.6649
  29   1.0000      -1.302147       -35.4332
  30   1.0000      -1.285828       -34.9892
  31   1.0000      -1.271473       -34.5985
  32   1.0000      -1.265624       -34.4394
  33   1.0000      -1.263048       -34.3693
  34   1.0000      -1.256137       -34.1812
  35   1.0000      -1.253363       -34.1057
  36   1.0000      -1.251706       -34.0607
  37   1.0000      -1.243476       -33.8367
  38   1.0000      -1.227578       -33.4041
  39   1.0000      -1.198849       -32.6223
  40   1.0000      -1.034019       -28.1371
  41   1.0000      -0.944745       -25.7078
  42   1.0000      -0.841206       -22.8904
  43   1.0000      -0.815936       -22.2027
  44   1.0000      -0.785301       -21.3691
  45   1.0000      -0.750792       -20.4301
  46   1.0000      -0.711683       -19.3659
  47   1.0000      -0.681616       -18.5477
  48   1.0000      -0.660966       -17.9858
  49   1.0000      -0.638289       -17.3687
  50   1.0000      -0.634236       -17.2584
  51   1.0000      -0.627179       -17.0664
  52   1.0000      -0.616589       -16.7782
  53   1.0000      -0.611429       -16.6378
  54   1.0000      -0.609955       -16.5977
  55   1.0000      -0.600516       -16.3409
  56   1.0000      -0.595162       -16.1952
  57   1.0000      -0.587346       -15.9825
  58   1.0000      -0.580588       -15.7986
  59   1.0000      -0.573200       -15.5976
  60   1.0000      -0.569152       -15.4874
  61   1.0000      -0.559600       -15.2275
  62   1.0000      -0.555192       -15.1075
  63   1.0000      -0.530618       -14.4388
  64   1.0000      -0.501714       -13.6523
  65   1.0000      -0.496952       -13.5227
  66   1.0000      -0.491596       -13.3770
  67   1.0000      -0.488312       -13.2877
  68   1.0000      -0.485798       -13.2192
  69   1.0000      -0.484551       -13.1853
  70   1.0000      -0.476823       -12.9750
  71   1.0000      -0.472405       -12.8548
  72   1.0000      -0.468516       -12.7490
  73   1.0000      -0.463883       -12.6229
  74   1.0000      -0.461496       -12.5579
  75   1.0000      -0.457021       -12.4362
  76   1.0000      -0.449404       -12.2289
  77   1.0000      -0.447772       -12.1845
  78   1.0000      -0.444869       -12.1055
  79   1.0000      -0.437019       -11.8919
  80   1.0000      -0.436012       -11.8645
  81   1.0000      -0.434046       -11.8110
  82   1.0000      -0.430525       -11.7152
  83   1.0000      -0.429700       -11.6927
  84   1.0000      -0.426146       -11.5960
  85   1.0000      -0.425323       -11.5736
  86   1.0000      -0.422828       -11.5057
  87   1.0000      -0.415503       -11.3064
  88   1.0000      -0.411580       -11.1997
  89   1.0000      -0.405838       -11.0434
  90   1.0000      -0.402903       -10.9635
  91   1.0000      -0.395916       -10.7734
  92   1.0000      -0.388118       -10.5612
  93   1.0000      -0.379755       -10.3337
  94   1.0000      -0.376563       -10.2468
  95   1.0000      -0.353250        -9.6124
  96   1.0000      -0.336338        -9.1522
  97   1.0000      -0.313235        -8.5236
  98   1.0000      -0.272678        -7.4199
  99   1.0000      -0.223700        -6.0872
 100   1.0000      -0.094269        -2.5652
 101   0.0000      -0.007730        -0.2103
 102   0.0000       0.006011         0.1636
 103   0.0000       0.040162         1.0929
 104   0.0000       0.053581         1.4580
 105   0.0000       0.084706         2.3050

                 SPIN DOWN ORBITALS
  NO   OCC          E(Eh)            E(eV)
   0   1.0000     -24.731372      -672.9748
   1   1.0000     -24.730247      -672.9442
   2   1.0000     -24.729783      -672.9316
   3   1.0000     -24.729499      -672.9239
   4   1.0000     -24.728650      -672.9008
   5   1.0000     -24.728534      -672.8976
   6   1.0000     -24.727820      -672.8782
   7   1.0000     -24.723940      -672.7726
   8   1.0000     -24.722747      -672.7401
   9   1.0000     -24.715523      -672.5436
  10   1.0000     -24.713488      -672.4882
  11   1.0000     -24.700924      -672.1463
  12   1.0000     -24.698232      -672.0731
  13   1.0000     -24.675599      -671.4572
  14   1.0000     -24.671971      -671.3585
  15   1.0000     -19.099551      -519.7252
  16   1.0000     -19.029342      -517.8147
  17   1.0000     -10.438714      -284.0518
  18   1.0000     -10.382925      -282.5338
  19   1.0000     -10.382525      -282.5229
  20   1.0000     -10.376499      -282.3589
  21   1.0000     -10.365141      -282.0498
  22   1.0000     -10.344475      -281.4875
  23   1.0000     -10.315629      -280.7025
  24   1.0000     -10.197591      -277.4905
  25   1.0000      -1.360419       -37.0189
  26   1.0000      -1.332841       -36.2685
  27   1.0000      -1.316768       -35.8311
  28   1.0000      -1.310569       -35.6624
  29   1.0000      -1.301924       -35.4271
  30   1.0000      -1.285491       -34.9800
  31   1.0000      -1.271455       -34.5980
  32   1.0000      -1.265595       -34.4386
  33   1.0000      -1.263000       -34.3680
  34   1.0000      -1.256061       -34.1791
  35   1.0000      -1.252585       -34.0846
  36   1.0000      -1.251182       -34.0464
  37   1.0000      -1.243330       -33.8327
  38   1.0000      -1.227403       -33.3993
  39   1.0000      -1.197811       -32.5941
  40   1.0000      -1.026145       -27.9228
  41   1.0000      -0.932740       -25.3811
  42   1.0000      -0.840275       -22.8651
  43   1.0000      -0.813799       -22.1446
  44   1.0000      -0.781991       -21.2790
  45   1.0000      -0.746757       -20.3203
  46   1.0000      -0.708306       -19.2740
  47   1.0000      -0.679895       -18.5009
  48   1.0000      -0.658700       -17.9241
  49   1.0000      -0.638157       -17.3651
  50   1.0000      -0.633846       -17.2478
  51   1.0000      -0.627121       -17.0648
  52   1.0000      -0.615174       -16.7397
  53   1.0000      -0.610379       -16.6093
  54   1.0000      -0.608733       -16.5645
  55   1.0000      -0.596920       -16.2430
  56   1.0000      -0.594915       -16.1885
  57   1.0000      -0.585510       -15.9325
  58   1.0000      -0.580319       -15.7913
  59   1.0000      -0.570053       -15.5119
  60   1.0000      -0.568557       -15.4712
  61   1.0000      -0.558225       -15.1901
  62   1.0000      -0.552575       -15.0363
  63   1.0000      -0.529360       -14.4046
  64   1.0000      -0.501646       -13.6505
  65   1.0000      -0.496900       -13.5213
  66   1.0000      -0.491503       -13.3745
  67   1.0000      -0.487295       -13.2600
  68   1.0000      -0.484540       -13.1850
  69   1.0000      -0.484145       -13.1743
  70   1.0000      -0.476290       -12.9605
  71   1.0000      -0.471899       -12.8410
  72   1.0000      -0.468432       -12.7467
  73   1.0000      -0.463772       -12.6199
  74   1.0000      -0.461154       -12.5486
  75   1.0000      -0.456730       -12.4283
  76   1.0000      -0.449106       -12.2208
  77   1.0000      -0.447658       -12.1814
  78   1.0000      -0.443935       -12.0801
  79   1.0000      -0.436872       -11.8879
  80   1.0000      -0.435843       -11.8599
  81   1.0000      -0.433541       -11.7972
  82   1.0000      -0.430359       -11.7107
  83   1.0000      -0.426078       -11.5942
  84   1.0000      -0.425518       -11.5789
  85   1.0000      -0.422908       -11.5079
  86   1.0000      -0.422161       -11.4876
  87   1.0000      -0.414714       -11.2849
  88   1.0000      -0.411068       -11.1857
  89   1.0000      -0.404574       -11.0090
  90   1.0000      -0.401202       -10.9173
  91   1.0000      -0.391399       -10.6505
  92   1.0000      -0.386444       -10.5157
  93   1.0000      -0.377945       -10.2844
  94   1.0000      -0.357775        -9.7356
  95   1.0000      -0.346844        -9.4381
  96   1.0000      -0.324584        -8.8324
  97   1.0000      -0.308563        -8.3964
  98   1.0000      -0.242833        -6.6078
  99   1.0000      -0.217023        -5.9055
 100   0.0000      -0.019403        -0.5280
 101   0.0000       0.003680         0.1001
 102   0.0000       0.016171         0.4400
 103   0.0000       0.045744         1.2448
 104   0.0000       0.058147         1.5823

MULLIKEN ATOMIC CHARGES AND SPIN POPULATIONS
--------------------------------------------
   0 C :   -0.035142    0.563471
   1 O :   -0.578066    0.248729
   2 O :   -0.496240    0.036515
   3 H :    0.320755    0.010628
   4 C :    0.473403   -0.005022
   5 C :    0.247169    0.091643
   6 C :    0.319917    0.020852
   7 C :    0.322498    0.014408
   8 C :    0.298529    0.005327
   9 C :    0.328591    0.002539
  10 C :    0.471037    0.001013
  11 F :   -0.223152    0.001020
  12 F :   -0.227105    0.002962
  13 F :   -0.197532    0.000772
  14 F :   -0.195285    0.002156
  15 F :   -0.180895    0.000248
  16 F :   -0.178758    0.000696
  17 F :   -0.171625    0.000219
  18 F :   -0.171194    0.000871
  19 F :   -0.167176    0.000345
  20 F :   -0.167176    0.000130
  21 F :   -0.164704    0.000146
  22 F :   -0.161551    0.000064
  23 F :   -0.156824   -0.000010
  24 F :   -0.154573    0.000277
  25 F :   -0.154901    0.000000
Sum of atomic charges         :   -1.0000000

LOEWDIN ATOMIC CHARGES AND SPIN POPULATIONS
-------------------------------------------
   0 C :   -0.627166    0.425823
   1 O :   -0.123695    0.229501
   2 O :   -0.037677    0.065242
   3 H :    0.173431    0.009691
   4 C :   -0.500417    0.131267
   5 C :   -0.467035    0.056866
   6 C :   -0.473688    0.031188
   7 C :   -0.471605    0.014240
   8 C :   -0.472554    0.006999
   9 C :   -0.479362    0.002972
  10 C :   -0.679284    0.001019
  11 F :    0.150475    0.007256
  12 F :    0.139386    0.010001
  13 F :    0.195349    0.001109
  14 F :    0.197605    0.001544
  15 F :    0.212071    0.001012
  16 F :    0.212605    0.001383
  17 F :    0.223163    0.000484
  18 F :    0.222918    0.000806
  19 F :    0.227750    0.000505
  20 F :    0.227713    0.000283
  21 F :    0.227982    0.000232
  22 F :    0.230073    0.000121
  23 F :    0.229905    0.000030
  24 F :    0.229991    0.000393
  25 F :    0.232064    0.000031

  Mayer bond orders larger than 0.100000
B(  0-C ,  1-O ) :   1.7794 B(  0-C ,  2-O ) :   1.0455 B(  0-C ,  4-C ) :   0.9032
B(  0-C ,  5-C ) :   0.1011 B(  2-O ,  3-H ) :   0.8643 B(  4-C ,  5-C ) :   0.8255
B(  4-C , 11-F ) :   1.0042 B(  4-C , 12-F ) :   0.9999 B(  5-C ,  6-C ) :   0.8977
B(  5-C , 13-F ) :   1.0479 B(  5-C , 14-F ) :   1.0680 B(  6-C ,  7-C ) :   0.9273
B(  6-C , 15-F ) :   1.0594 B(  6-C , 16-F ) :   1.0757 B(  7-C ,  8-C ) :   0.9259
B(  7-C , 17-F ) :   1.0709 B(  7-C , 18-F ) :   1.0765 B(  8-C ,  9-C ) :   0.9351
B(  8-C , 19-F ) :   1.0795 B(  8-C , 20-F ) :   1.0862 B(  9-C , 10-C ) :   0.9540
B(  9-C , 21-F ) :   1.0815 B(  9-C , 22-F ) :   1.0966 B( 10-C , 23-F ) :   1.1285
B( 10-C , 24-F ) :   1.1324 B( 10-C , 25-F ) :   1.1420

Dispersion correction           -0.008664289
FINAL SINGLE POINT ENERGY     -1953.543799303174

DIPOLE MOMENT
-------------

Method             : SCF
Type of density    : Electron Density
Multiplicity       :   2
Irrep              :   0
Energy             : -1953.5351350137389090 Eh
Relativity type    :
Basis              : AO
                                X                 Y                 Z
Electronic contribution:    -22.774281869      -1.758111055       1.946581048
Nuclear contribution   :     15.312787597       2.447212490      -1.521501967
                        -----------------------------------------
Total Dipole Moment    :     -7.461494272       0.689101434       0.425079081
                        -----------------------------------------
Magnitude (a.u.)       :      7.505294783
Magnitude (Debye)      :     19.076943269

Rotational constants in cm-1:             0.021163             0.003730             0.003689
Rotational constants in MHz :           634.454293           111.821420           110.607937

                             ****ORCA TERMINATED NORMALLY****
TOTAL RUN TIME: 0 days 0 hours 15 minutes 37 seconds 466 msec
