                         Program Version 6.0.1  -  RELEASE   -
|  1> !TPSSh def2-TZVP freq d3 TightSCF SlowConv defgrid2
|  2>
|  3> %pal
|  4> nprocs 20
|  5> end
|  6>
|  7> %scf
|  8> MaxIter 1500
|  9> end
| 10>
| 11> %maxcore 8000
| 12>
| 13> !CPCM
| 14> %cpcm smd true
| 15> SMDsolvent "ACETONITRILE"
| 16> end
| 17>
| 18> * xyz -2 2
| 19> 6        6.846104000     28.317698000      2.667395000
| 20> 6        6.293255000     26.879872000      2.808606000
| 21> 6        6.914406000     25.623981000      2.111091000
| 22> 6        6.432722000     24.117409000      2.166391000
| 23> 6        7.058936000     22.862485000      1.466835000
| 24> 6        6.532725000     21.406706000      1.684543000
| 25> 6        7.028640000     20.255353000      0.759074000
| 26> 6        6.712072000     18.818524000      1.304835000
| 27> 9        6.818023000     28.717872000      1.384189000
| 28> 9        8.115715000     28.388619000      3.105151000
| 29> 9        6.139437000     29.247201000      3.378939000
| 30> 9        6.307671000     26.628283000      4.163873000
| 31> 9        4.983883000     26.962517000      2.386097000
| 32> 9        6.901761000     25.943884000      0.754399000
| 33> 9        8.230224000     25.595227000      2.560451000
| 34> 9        6.444653000     23.803459000      3.524614000
| 35> 9        5.117428000     24.159560000      1.724194000
| 36> 9        6.986309000     23.104550000      0.111994000
| 37> 9        8.386885000     22.845947000      1.833398000
| 38> 9        6.839534000     21.058698000      2.972764000
| 39> 9        5.167580000     21.440783000      1.583917000
| 40> 9        6.460840000     20.443379000     -0.476966000
| 41> 9        8.381166000     20.419450000      0.583177000
| 42> 8        7.634728000     18.264725000      1.921182000
| 43> 8        5.545319000     18.414707000      1.075742000
| 44> 8        3.431456000     19.007326000     -0.549779000
| 45> 1        2.704332000     18.810685000      0.055103000
| 46> 1        4.242951000     18.878418000     -0.000589000
| 47> *
| 48>
| 49>                          ****END OF INPUT****

CARTESIAN COORDINATES (ANGSTROEM)
---------------------------------
  C      6.846104   28.317698    2.667395
  C      6.293255   26.879872    2.808606
  C      6.914406   25.623981    2.111091
  C      6.432722   24.117409    2.166391
  C      7.058936   22.862485    1.466835
  C      6.532725   21.406706    1.684543
  C      7.028640   20.255353    0.759074
  C      6.712072   18.818524    1.304835
  F      6.818023   28.717872    1.384189
  F      8.115715   28.388619    3.105151
  F      6.139437   29.247201    3.378939
  F      6.307671   26.628283    4.163873
  F      4.983883   26.962517    2.386097
  F      6.901761   25.943884    0.754399
  F      8.230224   25.595227    2.560451
  F      6.444653   23.803459    3.524614
  F      5.117428   24.159560    1.724194
  F      6.986309   23.104550    0.111994
  F      8.386885   22.845947    1.833398
  F      6.839534   21.058698    2.972764
  F      5.167580   21.440783    1.583917
  F      6.460840   20.443379   -0.476966
  F      8.381166   20.419450    0.583177
  O      7.634728   18.264725    1.921182
  O      5.545319   18.414707    1.075742
  O      3.431456   19.007326   -0.549779
  H      2.704332   18.810685    0.055103
  H      4.242951   18.878418   -0.000589

 Total Charge           Charge          ....   -2
 Multiplicity           Mult            ....    2
 Number of Electrons    NEL             ....  211
 Basis Dimension        Dim             ....  818

ORBITAL ENERGIES
----------------
                 SPIN UP ORBITALS
  NO   OCC          E(Eh)            E(eV)
   0   1.0000     -24.635748      -670.3728
   1   1.0000     -24.635663      -670.3705
   2   1.0000     -24.627405      -670.1458
   3   1.0000     -24.616771      -669.8564
   4   1.0000     -24.616724      -669.8551
   5   1.0000     -24.615136      -669.8119
   6   1.0000     -24.613015      -669.7542
   7   1.0000     -24.610088      -669.6746
   8   1.0000     -24.608610      -669.6343
   9   1.0000     -24.602702      -669.4736
  10   1.0000     -24.602082      -669.4567
  11   1.0000     -24.601861      -669.4507
  12   1.0000     -24.600784      -669.4214
  13   1.0000     -24.600492      -669.4134
  14   1.0000     -24.599722      -669.3925
  15   1.0000     -19.007408      -517.2179
  16   1.0000     -18.990195      -516.7495
  17   1.0000     -18.985484      -516.6213
  18   1.0000     -10.360706      -281.9291
  19   1.0000     -10.291535      -280.0469
  20   1.0000     -10.287396      -279.9343
  21   1.0000     -10.282785      -279.8088
  22   1.0000     -10.275481      -279.6100
  23   1.0000     -10.272767      -279.5362
  24   1.0000     -10.267070      -279.3812
  25   1.0000     -10.187838      -277.2252
  26   1.0000      -1.287871       -35.0448
  27   1.0000      -1.243404       -33.8347
  28   1.0000      -1.234623       -33.5958
  29   1.0000      -1.224433       -33.3185
  30   1.0000      -1.216710       -33.1084
  31   1.0000      -1.213532       -33.0219
  32   1.0000      -1.206822       -32.8393
  33   1.0000      -1.203491       -32.7487
  34   1.0000      -1.194955       -32.5164
  35   1.0000      -1.183074       -32.1931
  36   1.0000      -1.180905       -32.1341
  37   1.0000      -1.172062       -31.8934
  38   1.0000      -1.165172       -31.7059
  39   1.0000      -1.162023       -31.6203
  40   1.0000      -1.157963       -31.5098
  41   1.0000      -0.996090       -27.1050
  42   1.0000      -0.941816       -25.6281
  43   1.0000      -0.912159       -24.8211
  44   1.0000      -0.766798       -20.8656
  45   1.0000      -0.760930       -20.7060
  46   1.0000      -0.731443       -19.9036
  47   1.0000      -0.700578       -19.0637
  48   1.0000      -0.662089       -18.0164
  49   1.0000      -0.630408       -17.1543
  50   1.0000      -0.605968       -16.4892
  51   1.0000      -0.577187       -15.7061
  52   1.0000      -0.575360       -15.6563
  53   1.0000      -0.574078       -15.6215
  54   1.0000      -0.562629       -15.3099
  55   1.0000      -0.555930       -15.1276
  56   1.0000      -0.552556       -15.0358
  57   1.0000      -0.541452       -14.7337
  58   1.0000      -0.538479       -14.6528
  59   1.0000      -0.529305       -14.4031
  60   1.0000      -0.528287       -14.3754
  61   1.0000      -0.523145       -14.2355
  62   1.0000      -0.514186       -13.9917
  63   1.0000      -0.508632       -13.8406
  64   1.0000      -0.504126       -13.7180
  65   1.0000      -0.495083       -13.4719
  66   1.0000      -0.474634       -12.9155
  67   1.0000      -0.447927       -12.1887
  68   1.0000      -0.447731       -12.1834
  69   1.0000      -0.442189       -12.0326
  70   1.0000      -0.432650       -11.7730
  71   1.0000      -0.428875       -11.6703
  72   1.0000      -0.426995       -11.6191
  73   1.0000      -0.423244       -11.5171
  74   1.0000      -0.420392       -11.4394
  75   1.0000      -0.417402       -11.3581
  76   1.0000      -0.416774       -11.3410
  77   1.0000      -0.414407       -11.2766
  78   1.0000      -0.410803       -11.1785
  79   1.0000      -0.407943       -11.1007
  80   1.0000      -0.402207       -10.9446
  81   1.0000      -0.400512       -10.8985
  82   1.0000      -0.395066       -10.7503
  83   1.0000      -0.390162       -10.6168
  84   1.0000      -0.389688       -10.6040
  85   1.0000      -0.388903       -10.5826
  86   1.0000      -0.385328       -10.4853
  87   1.0000      -0.379271       -10.3205
  88   1.0000      -0.378322       -10.2947
  89   1.0000      -0.375931       -10.2296
  90   1.0000      -0.373582       -10.1657
  91   1.0000      -0.372816       -10.1448
  92   1.0000      -0.367629       -10.0037
  93   1.0000      -0.367436        -9.9984
  94   1.0000      -0.363555        -9.8928
  95   1.0000      -0.360501        -9.8097
  96   1.0000      -0.353792        -9.6272
  97   1.0000      -0.344092        -9.3632
  98   1.0000      -0.326717        -8.8904
  99   1.0000      -0.321404        -8.7459
 100   1.0000      -0.291429        -7.9302
 101   1.0000      -0.254450        -6.9239
 102   1.0000      -0.232292        -6.3210
 103   1.0000      -0.220715        -6.0060
 104   1.0000      -0.213921        -5.8211
 105   1.0000      -0.070605        -1.9213
 106   0.0000       0.011610         0.3159
 107   0.0000       0.031870         0.8672
 108   0.0000       0.045979         1.2512
 109   0.0000       0.060041         1.6338
 110   0.0000       0.067519         1.8373

                 SPIN DOWN ORBITALS
  NO   OCC          E(Eh)            E(eV)
   0   1.0000     -24.635728      -670.3723
   1   1.0000     -24.635645      -670.3700
   2   1.0000     -24.626213      -670.1133
   3   1.0000     -24.616444      -669.8475
   4   1.0000     -24.616392      -669.8461
   5   1.0000     -24.615081      -669.8104
   6   1.0000     -24.612891      -669.7508
   7   1.0000     -24.609851      -669.6681
   8   1.0000     -24.608347      -669.6272
   9   1.0000     -24.602192      -669.4597
  10   1.0000     -24.602038      -669.4555
  11   1.0000     -24.601315      -669.4358
  12   1.0000     -24.600705      -669.4192
  13   1.0000     -24.600029      -669.4008
  14   1.0000     -24.599213      -669.3786
  15   1.0000     -19.007409      -517.2179
  16   1.0000     -18.990005      -516.7443
  17   1.0000     -18.985235      -516.6145
  18   1.0000     -10.359076      -281.8848
  19   1.0000     -10.289024      -279.9786
  20   1.0000     -10.286128      -279.8998
  21   1.0000     -10.280365      -279.7430
  22   1.0000     -10.271702      -279.5072
  23   1.0000     -10.269065      -279.4355
  24   1.0000     -10.266487      -279.3653
  25   1.0000     -10.187605      -277.2188
  26   1.0000      -1.286948       -35.0196
  27   1.0000      -1.242559       -33.8117
  28   1.0000      -1.233289       -33.5595
  29   1.0000      -1.223466       -33.2922
  30   1.0000      -1.216428       -33.1007
  31   1.0000      -1.212225       -32.9863
  32   1.0000      -1.206680       -32.8354
  33   1.0000      -1.202053       -32.7095
  34   1.0000      -1.193157       -32.4674
  35   1.0000      -1.182571       -32.1794
  36   1.0000      -1.180156       -32.1137
  37   1.0000      -1.171451       -31.8768
  38   1.0000      -1.164192       -31.6793
  39   1.0000      -1.161840       -31.6153
  40   1.0000      -1.156945       -31.4821
  41   1.0000      -0.995669       -27.0935
  42   1.0000      -0.941804       -25.6278
  43   1.0000      -0.911759       -24.8102
  44   1.0000      -0.758813       -20.6484
  45   1.0000      -0.754833       -20.5401
  46   1.0000      -0.723838       -19.6966
  47   1.0000      -0.694762       -18.9054
  48   1.0000      -0.658535       -17.9196
  49   1.0000      -0.628336       -17.0979
  50   1.0000      -0.603940       -16.4340
  51   1.0000      -0.576132       -15.6773
  52   1.0000      -0.572294       -15.5729
  53   1.0000      -0.570330       -15.5195
  54   1.0000      -0.560586       -15.2543
  55   1.0000      -0.552474       -15.0336
  56   1.0000      -0.550886       -14.9904
  57   1.0000      -0.539522       -14.6811
  58   1.0000      -0.534633       -14.5481
  59   1.0000      -0.527714       -14.3598
  60   1.0000      -0.525173       -14.2907
  61   1.0000      -0.521369       -14.1872
  62   1.0000      -0.512940       -13.9578
  63   1.0000      -0.504778       -13.7357
  64   1.0000      -0.501154       -13.6371
  65   1.0000      -0.493988       -13.4421
  66   1.0000      -0.474565       -12.9136
  67   1.0000      -0.447317       -12.1721
  68   1.0000      -0.446001       -12.1363
  69   1.0000      -0.441470       -12.0130
  70   1.0000      -0.432207       -11.7609
  71   1.0000      -0.428141       -11.6503
  72   1.0000      -0.426565       -11.6074
  73   1.0000      -0.422756       -11.5038
  74   1.0000      -0.419486       -11.4148
  75   1.0000      -0.416837       -11.3427
  76   1.0000      -0.415763       -11.3135
  77   1.0000      -0.413560       -11.2535
  78   1.0000      -0.409781       -11.1507
  79   1.0000      -0.407250       -11.0818
  80   1.0000      -0.401232       -10.9181
  81   1.0000      -0.399497       -10.8709
  82   1.0000      -0.394413       -10.7325
  83   1.0000      -0.389577       -10.6009
  84   1.0000      -0.388837       -10.5808
  85   1.0000      -0.388047       -10.5593
  86   1.0000      -0.384529       -10.4636
  87   1.0000      -0.378194       -10.2912
  88   1.0000      -0.377892       -10.2830
  89   1.0000      -0.375575       -10.2199
  90   1.0000      -0.371990       -10.1224
  91   1.0000      -0.368745       -10.0341
  92   1.0000      -0.367252        -9.9934
  93   1.0000      -0.365152        -9.9363
  94   1.0000      -0.360582        -9.8119
  95   1.0000      -0.359369        -9.7789
  96   1.0000      -0.348258        -9.4766
  97   1.0000      -0.339840        -9.2475
  98   1.0000      -0.326341        -8.8802
  99   1.0000      -0.318633        -8.6704
 100   1.0000      -0.290518        -7.9054
 101   1.0000      -0.254426        -6.9233
 102   1.0000      -0.231233        -6.2922
 103   1.0000      -0.220204        -5.9921
 104   1.0000      -0.213423        -5.8075
 105   0.0000      -0.015790        -0.4297
 106   0.0000       0.021885         0.5955
 107   0.0000       0.039485         1.0744
 108   0.0000       0.053158         1.4465
 109   0.0000       0.067474         1.8361

MULLIKEN ATOMIC CHARGES AND SPIN POPULATIONS
--------------------------------------------
   0 C :    0.379625    0.077567
   1 C :    0.255665    0.140843
   2 C :    0.202179    0.249765
   3 C :    0.218667    0.253557
   4 C :    0.249046    0.147794
   5 C :    0.238850    0.067764
   6 C :    0.310692    0.028732
   7 C :    0.211836    0.011645
   8 F :   -0.160205   -0.001384
   9 F :   -0.160687   -0.001395
  10 F :   -0.172456    0.013490
  11 F :   -0.197799    0.000510
  12 F :   -0.197472    0.000511
  13 F :   -0.222528    0.000723
  14 F :   -0.219885    0.000477
  15 F :   -0.223587    0.000076
  16 F :   -0.218107   -0.000276
  17 F :   -0.205345   -0.001349
  18 F :   -0.204119   -0.001021
  19 F :   -0.196446   -0.000835
  20 F :   -0.194854   -0.000175
  21 F :   -0.209249   -0.000140
  22 F :   -0.207247    0.000023
  23 O :   -0.479240    0.007573
  24 O :   -0.538472    0.005543
  25 O :   -0.745369   -0.000019
  26 H :    0.329354   -0.000003
  27 H :    0.357153    0.000006
Sum of atomic charges         :   -2.0000000

LOEWDIN ATOMIC CHARGES AND SPIN POPULATIONS
-------------------------------------------
   0 C :   -0.656825    0.065148
   1 C :   -0.481936    0.147142
   2 C :   -0.474546    0.219128
   3 C :   -0.474923    0.214635
   4 C :   -0.471190    0.137198
   5 C :   -0.461250    0.066740
   6 C :   -0.445126    0.031376
   7 C :   -0.669014    0.012720
   8 F :    0.196521    0.000812
   9 F :    0.195916    0.000775
  10 F :    0.155838    0.023328
  11 F :    0.156257    0.006303
  12 F :    0.156593    0.006206
  13 F :    0.125305    0.010460
  14 F :    0.129834    0.009964
  15 F :    0.124427    0.009744
  16 F :    0.132251    0.009259
  17 F :    0.154783    0.004647
  18 F :    0.153953    0.005142
  19 F :    0.174508    0.001389
  20 F :    0.172654    0.002187
  21 F :    0.149719    0.001092
  22 F :    0.149375    0.001396
  23 O :   -0.043030    0.007408
  24 O :   -0.064765    0.005835
  25 O :   -0.378587   -0.000011
  26 H :    0.153629   -0.000002
  27 H :    0.139629   -0.000019

  Mayer bond orders larger than 0.100000
B(  0-C ,  1-C ) :   0.9654 B(  0-C ,  8-F ) :   1.1493 B(  0-C ,  9-F ) :   1.1488
B(  0-C , 10-F ) :   1.0988 B(  1-C ,  2-C ) :   0.9203 B(  1-C , 11-F ) :   1.0378
B(  1-C , 12-F ) :   1.0373 B(  2-C ,  3-C ) :   0.9026 B(  2-C , 13-F ) :   1.0018
B(  2-C , 14-F ) :   1.0047 B(  3-C ,  4-C ) :   0.9087 B(  3-C , 15-F ) :   0.9947
B(  3-C , 16-F ) :   1.0046 B(  4-C ,  5-C ) :   0.8988 B(  4-C , 17-F ) :   1.0330
B(  4-C , 18-F ) :   1.0347 B(  5-C ,  6-C ) :   0.9032 B(  5-C , 19-F ) :   1.0543
B(  5-C , 20-F ) :   1.0675 B(  6-C ,  7-C ) :   0.8835 B(  6-C , 21-F ) :   1.0353
B(  6-C , 22-F ) :   1.0535 B(  7-C , 23-O ) :   1.8975 B(  7-C , 24-O ) :   1.6707
B( 24-O , 27-H ) :   0.1223 B( 25-O , 26-H ) :   0.9003 B( 25-O , 27-H ) :   0.8061

Dispersion correction           -0.031594832
FINAL SINGLE POINT ENERGY     -2030.411935752901

DIPOLE MOMENT
-------------

Method             : SCF
Type of density    : Electron Density
Multiplicity       :   2
Irrep              :   0
Energy             : -2030.3803409212084716 Eh
Relativity type    :
Basis              : AO
                                X                 Y                 Z
Electronic contribution:      8.361214824      29.010342560       6.911393086
Nuclear contribution   :     -8.075218343     -22.188178213      -5.624730436
                        -----------------------------------------
Total Dipole Moment    :      0.285996482       6.822164347       1.286662649
                        -----------------------------------------
Magnitude (a.u.)       :      6.948325059
Magnitude (Debye)      :     17.661238740

VIBRATIONAL FREQUENCIES
-----------------------

Scaling factor for frequencies =  1.000000000  (already applied!)

     0:       0.00 cm**-1
     1:       0.00 cm**-1
     2:       0.00 cm**-1
     3:       0.00 cm**-1
     4:       0.00 cm**-1
     5:       0.00 cm**-1
     6:      20.40 cm**-1
     7:      30.36 cm**-1
     8:      31.97 cm**-1
     9:      37.40 cm**-1
    10:      46.40 cm**-1
    11:      48.58 cm**-1
    12:      54.60 cm**-1
    13:      60.54 cm**-1
    14:      65.58 cm**-1
    15:      70.20 cm**-1
    16:      78.67 cm**-1
    17:      93.02 cm**-1
    18:      99.59 cm**-1
    19:     129.07 cm**-1
    20:     153.95 cm**-1
    21:     176.59 cm**-1
    22:     189.02 cm**-1
    23:     195.43 cm**-1
    24:     204.30 cm**-1
    25:     222.04 cm**-1
    26:     230.03 cm**-1
    27:     236.61 cm**-1
    28:     243.50 cm**-1
    29:     252.02 cm**-1
    30:     264.37 cm**-1
    31:     309.01 cm**-1
    32:     314.66 cm**-1
    33:     317.01 cm**-1
    34:     323.21 cm**-1
    35:     330.02 cm**-1
    36:     339.17 cm**-1
    37:     354.27 cm**-1
    38:     360.42 cm**-1
    39:     366.96 cm**-1
    40:     411.28 cm**-1
    41:     427.56 cm**-1
    42:     457.30 cm**-1
    43:     463.19 cm**-1
    44:     499.70 cm**-1
    45:     508.13 cm**-1
    46:     524.07 cm**-1
    47:     542.87 cm**-1
    48:     555.83 cm**-1
    49:     567.91 cm**-1
    50:     583.70 cm**-1
    51:     593.91 cm**-1
    52:     609.51 cm**-1
    53:     626.71 cm**-1
    54:     662.73 cm**-1
    55:     668.09 cm**-1
    56:     703.32 cm**-1
    57:     729.49 cm**-1
    58:     739.74 cm**-1
    59:     792.22 cm**-1
    60:     809.01 cm**-1
    61:     863.35 cm**-1
    62:     873.39 cm**-1
    63:     944.06 cm**-1
    64:     948.73 cm**-1
    65:     972.65 cm**-1
    66:     998.29 cm**-1
    67:    1003.89 cm**-1
    68:    1006.41 cm**-1
    69:    1022.71 cm**-1
    70:    1026.26 cm**-1
    71:    1056.18 cm**-1
    72:    1067.93 cm**-1
    73:    1079.31 cm**-1
    74:    1092.27 cm**-1
    75:    1119.35 cm**-1
    76:    1128.03 cm**-1
    77:    1137.30 cm**-1
    78:    1244.39 cm**-1
    79:    1350.84 cm**-1
    80:    1669.54 cm**-1
    81:    1689.57 cm**-1
    82:    3351.38 cm**-1
    83:    3791.39 cm**-1

IR SPECTRUM
-----------

 Mode   freq       eps      Int      T**2         TX        TY        TZ
       cm**-1   L/(mol*cm) km/mol    a.u.
----------------------------------------------------------------------------
  6:     20.40   0.000709    3.59  0.010852  ( 0.012467  0.101974  0.017271)
  7:     30.36   0.000169    0.86  0.001742  (-0.009136  0.021116 -0.034819)
  8:     31.97   0.000111    0.56  0.001083  (-0.029614 -0.011319  0.008827)
  9:     37.40   0.000159    0.81  0.001331  ( 0.021606  0.004768 -0.028999)
 10:     46.40   0.000520    2.63  0.003500  (-0.020350  0.050646  0.022825)
 11:     48.58   0.000907    4.58  0.005828  ( 0.015028  0.071572  0.021891)
 12:     54.60   0.000951    4.80  0.005434  (-0.039109 -0.055861 -0.027996)
 13:     60.54   0.000305    1.54  0.001571  (-0.008700  0.038397 -0.004577)
 14:     65.58   0.002435   12.30  0.011585  (-0.037967  0.100537  0.005991)
 15:     70.20   0.001757    8.88  0.007812  ( 0.018257 -0.084711 -0.017403)
 16:     78.67   0.027192  137.42  0.107868  (-0.011310  0.313331  0.097794)
 17:     93.02   0.000175    0.89  0.000588  (-0.011677  0.002124  0.021141)
 18:     99.59   0.000107    0.54  0.000335  ( 0.000914  0.010719  0.014813)
 19:    129.07   0.027039  136.64  0.065373  ( 0.021102 -0.243779 -0.074161)
 20:    153.95   0.021127  106.77  0.042827  ( 0.004138  0.205300  0.025723)
 21:    176.59   0.000942    4.76  0.001664  ( 0.016640  0.027848  0.024732)
 22:    189.02   0.003230   16.32  0.005332  ( 0.067713  0.003934  0.027054)
 23:    195.43   0.001646    8.32  0.002628  (-0.037316 -0.003097 -0.035018)
 24:    204.30   0.000606    3.06  0.000926  (-0.024163 -0.016179 -0.008975)
 25:    222.04   0.002122   10.72  0.002982  (-0.031520 -0.034421 -0.028351)
 26:    230.03   0.020642  104.32  0.028003  ( 0.001046 -0.165137 -0.027047)
 27:    236.61   0.000121    0.61  0.000159  (-0.011374  0.005465 -0.000450)
 28:    243.50   0.000133    0.67  0.000170  ( 0.010056 -0.007761  0.002942)
 29:    252.02   0.000246    1.25  0.000305  ( 0.012918  0.009635  0.006747)
 30:    264.37   0.002014   10.18  0.002378  (-0.044022 -0.005604 -0.020204)
 31:    309.01   0.001422    7.18  0.001436  (-0.001873  0.037574  0.004516)
 32:    314.66   0.003319   16.78  0.003292  ( 0.005251 -0.056607 -0.007755)
 33:    317.01   0.013102   66.21  0.012897  ( 0.000605  0.111127  0.023399)
 34:    323.21   0.000069    0.35  0.000067  ( 0.005265  0.005943 -0.002002)
 35:    330.02   0.003699   18.69  0.003498  (-0.002024  0.056099  0.018614)
 36:    339.17   0.008086   40.86  0.007439  ( 0.006873 -0.084785 -0.014273)
 37:    354.27   0.000050    0.25  0.000044  ( 0.006515  0.000427  0.001260)
 38:    360.42   0.000302    1.52  0.000261  (-0.003482 -0.006863 -0.014208)
 39:    366.96   0.001944    9.82  0.001653  (-0.025868 -0.025296 -0.018546)
 40:    411.28   0.001244    6.28  0.000944  ( 0.030643 -0.002063 -0.000524)
 41:    427.56   0.015848   80.09  0.011567  (-0.107416  0.000023 -0.005350)
 42:    457.30   0.001202    6.08  0.000820  (-0.024952 -0.014019  0.001094)
 43:    463.19   0.001066    5.39  0.000718  ( 0.018146 -0.012343  0.015385)
 44:    499.70   0.004142   20.93  0.002586  ( 0.003184 -0.048346 -0.015460)
 45:    508.13   0.000144    0.73  0.000088  ( 0.007520  0.003449 -0.004476)
 46:    524.07   0.003091   15.62  0.001841  ( 0.013262  0.034461 -0.021845)
 47:    542.87   0.000426    2.15  0.000245  (-0.012441 -0.007724 -0.005495)
 48:    555.83   0.005047   25.50  0.002833  (-0.013067  0.044168  0.026682)
 49:    567.91   0.003070   15.51  0.001687  ( 0.009888  0.038187 -0.011437)
 50:    583.70   0.000886    4.48  0.000474  ( 0.005853  0.019802  0.006894)
 51:    593.91   0.001680    8.49  0.000883  (-0.006620 -0.028671 -0.004130)
 52:    609.51   0.025520  128.97  0.013066  (-0.010559  0.110974  0.025283)
 53:    626.71   0.068072  344.01  0.033896  (-0.002959 -0.181897 -0.028290)
 54:    662.73   0.068671  347.03  0.032335  (-0.009439  0.174976  0.040370)
 55:    668.09   0.001711    8.65  0.000799  ( 0.002113  0.027866 -0.004284)
 56:    703.32   0.015724   79.46  0.006977  ( 0.000429  0.081647  0.017623)
 57:    729.49   0.023823  120.39  0.010191  (-0.021408  0.092816  0.033439)
 58:    739.74   0.019976  100.95  0.008427  ( 0.000834 -0.083403 -0.038340)
 59:    792.22   0.024589  124.26  0.009686  ( 0.023761  0.090135 -0.031572)
 60:    809.01   0.044012  222.42  0.016977  (-0.006589  0.129579  0.011961)
 61:    863.35   0.034290  173.29  0.012394  ( 0.010610 -0.107031 -0.028746)
 62:    873.39   0.000315    1.59  0.000113  (-0.003592 -0.009514 -0.003025)
 63:    944.06   0.097516  492.81  0.032234  ( 0.010459 -0.173068  0.046609)
 64:    948.73   0.005183   26.19  0.001705  (-0.005679 -0.028458 -0.029374)
 65:    972.65   0.137567  695.21  0.044137  (-0.055063 -0.201860 -0.018906)
 66:    998.29   0.098677  498.67  0.030846  (-0.077440  0.124673  0.096467)
 67:   1003.89   0.121979  616.43  0.037918  (-0.077481  0.143936  0.105816)
 68:   1006.41   0.026526  134.05  0.008225  ( 0.068960 -0.027688  0.051988)
 69:   1022.71   0.106305  537.22  0.032438  (-0.088810 -0.002910 -0.156659)
 70:   1026.26   0.224472  1134.39  0.068257  (-0.122613  0.191630  0.128458)
 71:   1056.18   0.083357  421.25  0.024629  (-0.078811 -0.124651 -0.053663)
 72:   1067.93   0.082150  415.15  0.024006  (-0.153198  0.016980 -0.015733)
 73:   1079.31   0.111223  562.07  0.032158  ( 0.085914 -0.075462  0.138139)
 74:   1092.27   0.061516  310.88  0.017575  (-0.071206  0.063870  0.091791)
 75:   1119.35   0.091944  464.65  0.025633  (-0.006799 -0.159956 -0.000946)
 76:   1128.03   0.111500  563.47  0.030846  (-0.104985  0.022642 -0.138965)
 77:   1137.30   0.250448  1265.66  0.068720  (-0.048599 -0.256556 -0.023176)
 78:   1244.39   0.171504  866.71  0.043009  ( 0.043365  0.202702  0.006368)
 79:   1350.84   0.144780  731.66  0.033446  (-0.036805 -0.177865 -0.021345)
 80:   1669.54   0.018598   93.99  0.003476  (-0.004024  0.020940 -0.054969)
 81:   1689.57   0.193104  975.87  0.035666  ( 0.171555 -0.030043  0.073024)
 82:   3351.38   0.258725  1307.49  0.024091  ( 0.132290  0.022286  0.078062)
 83:   3791.39   0.013273   67.07  0.001092  ( 0.031970  0.007819 -0.003041)

--------------------------
THERMOCHEMISTRY AT 298.15K
--------------------------

Temperature         ...   298.15 K
Pressure            ...     1.00 atm
Total Mass          ...   431.07 AMU
Quasi RRHO          ...     True
Cut-Off Frequency   ...     1.00 cm^-1

Throughout the following assumptions are being made:
  (1) The electronic state is orbitally nondegenerate
      but the spin degeneracy is treated
  (2) There are no thermally accessible electronically excited states
  (3) Hindered rotations indicated by low frequency modes are not
      treated as such but are treated as vibrations and this may
      cause some error
  (4) All equations used are the standard statistical mechanics
      equations for an ideal gas
  (5) All vibrations are strictly harmonic

freq.      20.40  E(vib)   ...       0.56
freq.      30.36  E(vib)   ...       0.55
freq.      31.97  E(vib)   ...       0.55
freq.      37.40  E(vib)   ...       0.54
freq.      46.40  E(vib)   ...       0.53
freq.      48.58  E(vib)   ...       0.53
freq.      54.60  E(vib)   ...       0.52
freq.      60.54  E(vib)   ...       0.51
freq.      65.58  E(vib)   ...       0.50
freq.      70.20  E(vib)   ...       0.50
freq.      78.67  E(vib)   ...       0.49
freq.      93.02  E(vib)   ...       0.47
freq.      99.59  E(vib)   ...       0.46
freq.     129.07  E(vib)   ...       0.43
freq.     153.95  E(vib)   ...       0.40
freq.     176.59  E(vib)   ...       0.38
freq.     189.02  E(vib)   ...       0.36
freq.     195.43  E(vib)   ...       0.36
freq.     204.30  E(vib)   ...       0.35
freq.     222.04  E(vib)   ...       0.33
freq.     230.03  E(vib)   ...       0.32
freq.     236.61  E(vib)   ...       0.32
freq.     243.50  E(vib)   ...       0.31
freq.     252.02  E(vib)   ...       0.30
freq.     264.37  E(vib)   ...       0.29
freq.     309.01  E(vib)   ...       0.26
freq.     314.66  E(vib)   ...       0.25
freq.     317.01  E(vib)   ...       0.25
freq.     323.21  E(vib)   ...       0.25
freq.     330.02  E(vib)   ...       0.24
freq.     339.17  E(vib)   ...       0.23
freq.     354.27  E(vib)   ...       0.22
freq.     360.42  E(vib)   ...       0.22
freq.     366.96  E(vib)   ...       0.22
freq.     411.28  E(vib)   ...       0.19
freq.     427.56  E(vib)   ...       0.18
freq.     457.30  E(vib)   ...       0.16
freq.     463.19  E(vib)   ...       0.16
freq.     499.70  E(vib)   ...       0.14
freq.     508.13  E(vib)   ...       0.14
freq.     524.07  E(vib)   ...       0.13
freq.     542.87  E(vib)   ...       0.12
freq.     555.83  E(vib)   ...       0.12
freq.     567.91  E(vib)   ...       0.11
freq.     583.70  E(vib)   ...       0.11
freq.     593.91  E(vib)   ...       0.10
freq.     609.51  E(vib)   ...       0.10
freq.     626.71  E(vib)   ...       0.09
freq.     662.73  E(vib)   ...       0.08
freq.     668.09  E(vib)   ...       0.08
freq.     703.32  E(vib)   ...       0.07
freq.     729.49  E(vib)   ...       0.06
freq.     739.74  E(vib)   ...       0.06
freq.     792.22  E(vib)   ...       0.05
freq.     809.01  E(vib)   ...       0.05
freq.     863.35  E(vib)   ...       0.04
freq.     873.39  E(vib)   ...       0.04
freq.     944.06  E(vib)   ...       0.03
freq.     948.73  E(vib)   ...       0.03
freq.     972.65  E(vib)   ...       0.03
freq.     998.29  E(vib)   ...       0.02
freq.    1003.89  E(vib)   ...       0.02
freq.    1006.41  E(vib)   ...       0.02
freq.    1022.71  E(vib)   ...       0.02
freq.    1026.26  E(vib)   ...       0.02
freq.    1056.18  E(vib)   ...       0.02
freq.    1067.93  E(vib)   ...       0.02
freq.    1079.31  E(vib)   ...       0.02
freq.    1092.27  E(vib)   ...       0.02
freq.    1119.35  E(vib)   ...       0.01
freq.    1128.03  E(vib)   ...       0.01
freq.    1137.30  E(vib)   ...       0.01
freq.    1244.39  E(vib)   ...       0.01
freq.    1350.84  E(vib)   ...       0.01
freq.    1669.54  E(vib)   ...       0.00
freq.    1689.57  E(vib)   ...       0.00
freq.    3351.38  E(vib)   ...       0.00
freq.    3791.39  E(vib)   ...       0.00

------------
INNER ENERGY
------------

The inner energy is: U= E(el) + E(ZPE) + E(vib) + E(rot) + E(trans)
    E(el)   - is the total energy from the electronic structure calculation
              = E(kin-el) + E(nuc-el) + E(el-el) + E(nuc-nuc)
    E(ZPE)  - the the zero temperature vibrational energy from the frequency calculation
    E(vib)  - the the finite temperature correction to E(ZPE) due to population
              of excited vibrational states
    E(rot)  - is the rotational thermal energy
    E(trans)- is the translational thermal energy

Summary of contributions to the inner energy U:
Electronic energy                ...  -2030.41193575 Eh
Zero point energy                ...      0.11200027 Eh      70.28 kcal/mol
Thermal vibrational correction   ...      0.02499365 Eh      15.68 kcal/mol
Thermal rotational correction    ...      0.00141627 Eh       0.89 kcal/mol
Thermal translational correction ...      0.00141627 Eh       0.89 kcal/mol
-----------------------------------------------------------------------
Total thermal energy                  -2030.27210929 Eh

Summary of corrections to the electronic energy:
(perhaps to be used in another calculation)
Total thermal correction                  0.02782620 Eh      17.46 kcal/mol
Non-thermal (ZPE) correction              0.11200027 Eh      70.28 kcal/mol
-----------------------------------------------------------------------
Total correction                          0.13982647 Eh      87.74 kcal/mol

--------
ENTHALPY
--------

The enthalpy is H = U + kB*T
                kB is Boltzmann's constant
Total thermal energy              ...  -2030.27210929 Eh
Thermal Enthalpy correction       ...      0.00094421 Eh       0.59 kcal/mol
-----------------------------------------------------------------------
Total Enthalpy                    ...  -2030.27116508 Eh

Note: Only C1 symmetry has been detected, increase convergence thresholds
      if your molecule has a higher symmetry. Symmetry factor of 1.0 is
      used for the rotational entropy correction.

Note: Rotational entropy computed according to Herzberg
Infrared and Raman Spectra, Chapter V,1, Van Nostrand Reinhold, 1945
Point Group:  C1, Symmetry Number:   1
Rotational constants in cm-1:     0.017106     0.003042     0.002938

Vibrational entropy computed according to the QRRHO of S. Grimme
Chem.Eur.J. 2012 18 9955 using a reference frequency of 100.0 cm-1

-------
ENTROPY
-------

The entropy contributions are T*S = T*(S(el)+S(vib)+S(rot)+S(trans))

                             ****ORCA TERMINATED NORMALLY****
TOTAL RUN TIME: 0 days 0 hours 30 minutes 35 seconds 345 msec
