                         Program Version 6.0.1  -  RELEASE   -
|  1> !B3LYP def2-TZVP opt d3 TightSCF SlowConv defgrid2
|  2>
|  3> %pal
|  4> nprocs 20
|  5> end
|  6>
|  7> %scf
|  8> MaxIter 1500
|  9> end
| 10>
| 11> %maxcore 8000
| 12>
| 13> !CPCM
| 14> %cpcm smd true
| 15> SMDsolvent "ACETONITRILE"
| 16> end
| 17>
| 18> * xyz 0 1
| 19> 6        4.790427000     -0.033865800     -0.529943200
| 20> 8        5.449345000     -1.206924000     -0.894594600
| 21> 8        4.978223000      1.323071000     -0.737377200
| 22> 6        3.506687600     -0.338741600      0.376153800
| 23> 6        2.222300000      0.400524800     -0.110681600
| 24> 6        0.900506800     -0.386389800      0.175703000
| 25> 6       -0.395261200      0.487294000      0.065549000
| 26> 6       -1.705693600     -0.364773800     -0.068373600
| 27> 6       -3.005136200      0.445344800      0.258164000
| 28> 6       -4.319880200     -0.214526000     -0.270540800
| 29> 9        3.211587400     -1.692050400      0.412735200
| 30> 9        3.741061800      0.055285800      1.689948800
| 31> 9        2.125696800      1.616867800      0.483236600
| 32> 9        2.314152400      0.589704000     -1.455769200
| 33> 9        0.794028800     -1.413561400     -0.700839000
| 34> 9        0.958350600     -0.884509000      1.435093400
| 35> 9       -0.498373400      1.260265600      1.173340200
| 36> 9       -0.299075000      1.289512600     -1.020910800
| 37> 9       -1.641790400     -1.418189000      0.779523800
| 38> 9       -1.792381400     -0.831391600     -1.336863600
| 39> 9       -2.918792200      1.679227200     -0.295171200
| 40> 9       -3.119771000      0.573779800      1.598579800
| 41> 9       -4.383115600     -1.504377600      0.089127600
| 42> 9       -5.365669800      0.430528600      0.260394200
| 43> 9       -4.396020400     -0.128550600     -1.602941800
| 44> 1        5.903122371     -2.014774547     -1.145719253
| 45> *
| 46>
| 47>                          ****END OF INPUT****
 Total Charge           Charge          ....    0
 Multiplicity           Mult            ....    1
 Number of Electrons    NEL             ....  200
Dispersion correction           -0.044643922
FINAL SINGLE POINT ENERGY     -1953.539501526531
Dispersion correction             ... done (  0.0 sec)
Dispersion correction           -0.044893034
FINAL SINGLE POINT ENERGY     -1953.591079529393
Dispersion correction             ... done (  0.0 sec)
Dispersion correction           -0.045030747
FINAL SINGLE POINT ENERGY     -1953.596116785739
Dispersion correction             ... done (  0.0 sec)
FINAL SINGLE POINT ENERGY     -1953.602418177925
FINAL SINGLE POINT ENERGY     -1953.602640275181
FINAL SINGLE POINT ENERGY     -1953.602427509130
FINAL SINGLE POINT ENERGY     -1953.603792190724
FINAL SINGLE POINT ENERGY     -1953.604736903673
FINAL SINGLE POINT ENERGY     -1953.606576281540
FINAL SINGLE POINT ENERGY     -1953.610238766781
FINAL SINGLE POINT ENERGY     -1953.644002608841
FINAL SINGLE POINT ENERGY     -1953.644573962419
FINAL SINGLE POINT ENERGY     -1953.644598401363
FINAL SINGLE POINT ENERGY     -1953.644610940652
FINAL SINGLE POINT ENERGY     -1953.644636244669
FINAL SINGLE POINT ENERGY     -1953.644648157843
FINAL SINGLE POINT ENERGY     -1953.644659738032
Dispersion correction             ... done (  0.0 sec)
Dispersion correction           -0.045068646
FINAL SINGLE POINT ENERGY     -1953.644664946605
Dispersion correction             ... done (  0.0 sec)
Dispersion correction           -0.045071283
FINAL SINGLE POINT ENERGY     -1953.644666979447
Dispersion correction             ... done (  0.0 sec)
                    ***********************HURRAY********************

CARTESIAN COORDINATES (ANGSTROEM)
---------------------------------
  C      4.788223   -0.032696   -0.223229
  O      5.165957   -0.808294   -1.226702
  O      5.325435    0.962347    0.169113
  C      3.482390   -0.557973    0.435970
  C      2.224404    0.126072   -0.189037
  C      0.862821   -0.540707    0.214541
  C     -0.375070    0.394824   -0.021252
  C     -1.740782   -0.379295   -0.031409
  C     -2.981170    0.554331    0.174914
  C     -4.348449   -0.102338   -0.205324
  F      3.366712   -1.896918    0.292501
  F      3.528918   -0.268614    1.751164
  F      2.221025    1.419803    0.192543
  F      2.342277    0.075452   -1.532846
  F      0.706204   -1.663621   -0.514203
  F      0.902962   -0.874358    1.518376
  F     -0.405166    1.319976    0.957438
  F     -0.230706    1.019336   -1.206294
  F     -1.735519   -1.296913    0.955536
  F     -1.864890   -1.014650   -1.212671
  F     -2.838619    1.664400   -0.576541
  F     -3.047149    0.909814    1.470651
  F     -4.480044   -1.292543    0.384800
  F     -5.333919    0.695622    0.210904
  F     -4.454490   -0.256186   -1.524314
  H      5.973177   -0.438092   -1.636807

 Multiplicity           Mult            ....    1
 Number of Electrons    NEL             ....  200
 Basis Dimension        Dim             ....  781

ORBITAL ENERGIES
----------------

  NO   OCC          E(Eh)            E(eV)
   0   2.0000     -24.747136      -673.4038
   1   2.0000     -24.747007      -673.4003
   2   2.0000     -24.746849      -673.3960
   3   2.0000     -24.746839      -673.3957
   4   2.0000     -24.746752      -673.3933
   5   2.0000     -24.746434      -673.3847
   6   2.0000     -24.745870      -673.3694
   7   2.0000     -24.745699      -673.3647
   8   2.0000     -24.745354      -673.3553
   9   2.0000     -24.745036      -673.3467
  10   2.0000     -24.744846      -673.3415
  11   2.0000     -24.744387      -673.3290
  12   2.0000     -24.743756      -673.3118
  13   2.0000     -24.735463      -673.0862
  14   2.0000     -24.733497      -673.0327
  15   2.0000     -19.207849      -522.6721
  16   2.0000     -19.154848      -521.2299
  17   2.0000     -10.463376      -284.7229
  18   2.0000     -10.412652      -283.3427
  19   2.0000     -10.412276      -283.3324
  20   2.0000     -10.411221      -283.3037
  21   2.0000     -10.410097      -283.2731
  22   2.0000     -10.406827      -283.1842
  23   2.0000     -10.397027      -282.9175
  24   2.0000     -10.346880      -281.5529
  25   2.0000      -1.355856       -36.8947
  26   2.0000      -1.338007       -36.4090
  27   2.0000      -1.325753       -36.0756
  28   2.0000      -1.314490       -35.7691
  29   2.0000      -1.311280       -35.6817
  30   2.0000      -1.309326       -35.6286
  31   2.0000      -1.302258       -35.4362
  32   2.0000      -1.270928       -34.5837
  33   2.0000      -1.266362       -34.4595
  34   2.0000      -1.262474       -34.3537
  35   2.0000      -1.260866       -34.3099
  36   2.0000      -1.256022       -34.1781
  37   2.0000      -1.253374       -34.1060
  38   2.0000      -1.252653       -34.0864
  39   2.0000      -1.244813       -33.8731
  40   2.0000      -1.147315       -31.2200
  41   2.0000      -1.063205       -28.9313
  42   2.0000      -0.853858       -23.2347
  43   2.0000      -0.838222       -22.8092
  44   2.0000      -0.814455       -22.1625
  45   2.0000      -0.781572       -21.2677
  46   2.0000      -0.740967       -20.1627
  47   2.0000      -0.705223       -19.1901
  48   2.0000      -0.687939       -18.7198
  49   2.0000      -0.669999       -18.2316
  50   2.0000      -0.655368       -17.8335
  51   2.0000      -0.652434       -17.7536
  52   2.0000      -0.641938       -17.4680
  53   2.0000      -0.637948       -17.3594
  54   2.0000      -0.636443       -17.3185
  55   2.0000      -0.631216       -17.1763
  56   2.0000      -0.621171       -16.9029
  57   2.0000      -0.617313       -16.7979
  58   2.0000      -0.613058       -16.6822
  59   2.0000      -0.607832       -16.5400
  60   2.0000      -0.603312       -16.4170
  61   2.0000      -0.596188       -16.2231
  62   2.0000      -0.589281       -16.0352
  63   2.0000      -0.585515       -15.9327
  64   2.0000      -0.574840       -15.6422
  65   2.0000      -0.522347       -14.2138
  66   2.0000      -0.521391       -14.1878
  67   2.0000      -0.519054       -14.1242
  68   2.0000      -0.513875       -13.9832
  69   2.0000      -0.511165       -13.9095
  70   2.0000      -0.506635       -13.7862
  71   2.0000      -0.504141       -13.7184
  72   2.0000      -0.501208       -13.6386
  73   2.0000      -0.497065       -13.5258
  74   2.0000      -0.492410       -13.3992
  75   2.0000      -0.492095       -13.3906
  76   2.0000      -0.487864       -13.2754
  77   2.0000      -0.484283       -13.1780
  78   2.0000      -0.481983       -13.1154
  79   2.0000      -0.476507       -12.9664
  80   2.0000      -0.473859       -12.8943
  81   2.0000      -0.468827       -12.7574
  82   2.0000      -0.465709       -12.6726
  83   2.0000      -0.462492       -12.5850
  84   2.0000      -0.459101       -12.4928
  85   2.0000      -0.456543       -12.4232
  86   2.0000      -0.455241       -12.3877
  87   2.0000      -0.452339       -12.3088
  88   2.0000      -0.450010       -12.2454
  89   2.0000      -0.448289       -12.1986
  90   2.0000      -0.444633       -12.0991
  91   2.0000      -0.443981       -12.0813
  92   2.0000      -0.442910       -12.0522
  93   2.0000      -0.437398       -11.9022
  94   2.0000      -0.430120       -11.7042
  95   2.0000      -0.412774       -11.2321
  96   2.0000      -0.384817       -10.4714
  97   2.0000      -0.361368        -9.8333
  98   2.0000      -0.353749        -9.6260
  99   2.0000      -0.318503        -8.6669
 100   0.0000      -0.054087        -1.4718
 101   0.0000      -0.009350        -0.2544
 102   0.0000       0.004052         0.1103
 103   0.0000       0.028201         0.7674
 104   0.0000       0.036113         0.9827

MULLIKEN ATOMIC CHARGES
-----------------------
   0 C :    0.227502
   1 O :   -0.347236
   2 O :   -0.284577
   3 C :    0.413096
   4 C :    0.307149
   5 C :    0.328478
   6 C :    0.334443
   7 C :    0.313008
   8 C :    0.324068
   9 C :    0.476303
  10 F :   -0.176467
  11 F :   -0.172055
  12 F :   -0.170262
  13 F :   -0.171563
  14 F :   -0.167581
  15 F :   -0.165752
  16 F :   -0.165927
  17 F :   -0.166407
  18 F :   -0.166623
  19 F :   -0.165680
  20 F :   -0.164925
  21 F :   -0.161425
  22 F :   -0.154617
  23 F :   -0.151946
  24 F :   -0.152031
  25 H :    0.381028
Sum of atomic charges:    0.0000000

LOEWDIN ATOMIC CHARGES
----------------------
   0 C :   -0.489182
   1 O :    0.155267
   2 O :    0.136475
   3 C :   -0.449322
   4 C :   -0.452456
   5 C :   -0.455403
   6 C :   -0.455466
   7 C :   -0.457058
   8 C :   -0.463355
   9 C :   -0.663949
  10 F :    0.209799
  11 F :    0.215506
  12 F :    0.224863
  13 F :    0.222246
  14 F :    0.225209
  15 F :    0.227160
  16 F :    0.227141
  17 F :    0.226700
  18 F :    0.226554
  19 F :    0.226720
  20 F :    0.224140
  21 F :    0.225864
  22 F :    0.225632
  23 F :    0.226145
  24 F :    0.227785
  25 H :    0.232984

  Mayer bond orders larger than 0.100000
B(  0-C ,  1-O ) :   1.3086 B(  0-C ,  2-O ) :   2.0845 B(  0-C ,  3-C ) :   0.8997
B(  1-O , 25-H ) :   0.8216 B(  3-C ,  4-C ) :   0.9435 B(  3-C , 10-F ) :   1.0894
B(  3-C , 11-F ) :   1.1058 B(  4-C ,  5-C ) :   0.9345 B(  4-C , 12-F ) :   1.0812
B(  4-C , 13-F ) :   1.0764 B(  5-C ,  6-C ) :   0.9392 B(  5-C , 14-F ) :   1.0828
B(  5-C , 15-F ) :   1.0848 B(  6-C ,  7-C ) :   0.9328 B(  6-C , 16-F ) :   1.0826
B(  6-C , 17-F ) :   1.0808 B(  7-C ,  8-C ) :   0.9262 B(  7-C , 18-F ) :   1.0821
B(  7-C , 19-F ) :   1.0897 B(  8-C ,  9-C ) :   0.9691 B(  8-C , 20-F ) :   1.0875
B(  8-C , 21-F ) :   1.0985 B(  9-C , 22-F ) :   1.1443 B(  9-C , 23-F ) :   1.1481
B(  9-C , 24-F ) :   1.1564

Dispersion correction           -0.045072100
FINAL SINGLE POINT ENERGY     -1953.644667241723

DIPOLE MOMENT
-------------

Method             : SCF
Type of density    : Electron Density
Multiplicity       :   1
Irrep              :   0
Energy             : -1953.5995951419158700 Eh
Relativity type    :
Basis              : AO
                                X                 Y                 Z
Electronic contribution:    -14.950657377      -0.324298255       1.583817126
Nuclear contribution   :     15.679400285      -0.060885706      -2.461900584
                        -----------------------------------------
Total Dipole Moment    :      0.728742908      -0.385183961      -0.878083457
                        -----------------------------------------
Magnitude (a.u.)       :      1.204351887
Magnitude (Debye)      :      3.061219217

Rotational constants in cm-1:             0.021264             0.003676             0.003636
Rotational constants in MHz :           637.487991           110.210381           109.010401

                             ****ORCA TERMINATED NORMALLY****
TOTAL RUN TIME: 0 days 0 hours 50 minutes 47 seconds 212 msec
