                         Program Version 6.0.1  -  RELEASE   -
|  1> !TPSSh def2-TZVP freq d3 TightSCF SlowConv defgrid2
|  2>
|  3> %pal
|  4> nprocs 20
|  5> end
|  6>
|  7> %scf
|  8> MaxIter 1500
|  9> end
| 10>
| 11> %maxcore 8000
| 12>
| 13> !CPCM
| 14> %cpcm smd true
| 15> SMDsolvent "ACETONITRILE"
| 16> end
| 17>
| 18> * xyz -1 2
| 19> 6        3.573618000     -0.426927000     -1.182197000
| 20> 8        4.217493000     -1.411615000     -1.570685000
| 21> 8        2.930967000      0.443318000     -1.809884000
| 22> 6        3.574718000     -0.137276000      0.358235000
| 23> 6        2.256198000      0.327001000      0.878397000
| 24> 6        0.981878000     -0.439141000      0.773192000
| 25> 6       -0.274134000      0.459955000      0.498922000
| 26> 6       -1.520575000     -0.321769000     -0.032172000
| 27> 6       -2.865314000      0.463441000      0.123629000
| 28> 6       -4.025771000     -0.070336000     -0.776551000
| 29> 9        4.022327000     -1.217253000      1.106625000
| 30> 9        4.490610000      0.867476000      0.605318000
| 31> 9        2.267211000      1.206427000      1.891211000
| 32> 9        1.084465000     -1.360245000     -0.216611000
| 33> 9        0.728046000     -1.120087000      1.940852000
| 34> 9       -0.611838000      1.087151000      1.651546000
| 35> 9        0.050590000      1.397156000     -0.415868000
| 36> 9       -1.639691000     -1.488422000      0.637567000
| 37> 9       -1.328702000     -0.595986000     -1.341969000
| 38> 9       -2.674201000      1.763431000     -0.190170000
| 39> 9       -3.269738000      0.381754000      1.406903000
| 40> 9       -4.129904000     -1.399983000     -0.679383000
| 41> 9       -5.175931000      0.478679000     -0.372674000
| 42> 9       -3.825069000      0.257104000     -2.054920000
| 43> *
| 44>
| 45>                          ****END OF INPUT****

CARTESIAN COORDINATES (ANGSTROEM)
---------------------------------
  C      3.573618   -0.426927   -1.182197
  O      4.217493   -1.411615   -1.570685
  O      2.930967    0.443318   -1.809884
  C      3.574718   -0.137276    0.358235
  C      2.256198    0.327001    0.878397
  C      0.981878   -0.439141    0.773192
  C     -0.274134    0.459955    0.498922
  C     -1.520575   -0.321769   -0.032172
  C     -2.865314    0.463441    0.123629
  C     -4.025771   -0.070336   -0.776551
  F      4.022327   -1.217253    1.106625
  F      4.490610    0.867476    0.605318
  F      2.267211    1.206427    1.891211
  F      1.084465   -1.360245   -0.216611
  F      0.728046   -1.120087    1.940852
  F     -0.611838    1.087151    1.651546
  F      0.050590    1.397156   -0.415868
  F     -1.639691   -1.488422    0.637567
  F     -1.328702   -0.595986   -1.341969
  F     -2.674201    1.763431   -0.190170
  F     -3.269738    0.381754    1.406903
  F     -4.129904   -1.399983   -0.679383
  F     -5.175931    0.478679   -0.372674
  F     -3.825069    0.257104   -2.054920

 Total Charge           Charge          ....   -1
 Multiplicity           Mult            ....    2
 Number of Electrons    NEL             ....  191
 Basis Dimension        Dim             ....  744

ORBITAL ENERGIES
----------------
                 SPIN UP ORBITALS
  NO   OCC          E(Eh)            E(eV)
   0   1.0000     -24.659932      -671.0309
   1   1.0000     -24.658891      -671.0025
   2   1.0000     -24.658370      -670.9884
   3   1.0000     -24.658187      -670.9834
   4   1.0000     -24.657198      -670.9565
   5   1.0000     -24.656731      -670.9438
   6   1.0000     -24.656572      -670.9394
   7   1.0000     -24.652463      -670.8276
   8   1.0000     -24.650694      -670.7795
   9   1.0000     -24.646632      -670.6689
  10   1.0000     -24.646201      -670.6572
  11   1.0000     -24.636339      -670.3889
  12   1.0000     -24.610425      -669.6837
  13   1.0000     -24.603547      -669.4965
  14   1.0000     -18.992051      -516.8000
  15   1.0000     -18.991875      -516.7952
  16   1.0000     -10.394414      -282.8464
  17   1.0000     -10.341657      -281.4108
  18   1.0000     -10.340902      -281.3902
  19   1.0000     -10.333970      -281.2016
  20   1.0000     -10.326852      -281.0079
  21   1.0000     -10.275097      -279.5996
  22   1.0000     -10.234911      -278.5061
  23   1.0000     -10.189776      -277.2779
  24   1.0000      -1.320985       -35.9458
  25   1.0000      -1.294426       -35.2231
  26   1.0000      -1.278369       -34.7862
  27   1.0000      -1.272903       -34.6374
  28   1.0000      -1.261550       -34.3285
  29   1.0000      -1.239552       -33.7299
  30   1.0000      -1.235793       -33.6276
  31   1.0000      -1.230319       -33.4787
  32   1.0000      -1.227697       -33.4073
  33   1.0000      -1.220891       -33.2221
  34   1.0000      -1.219088       -33.1731
  35   1.0000      -1.216497       -33.1026
  36   1.0000      -1.203356       -32.7450
  37   1.0000      -1.165710       -31.7206
  38   1.0000      -0.999854       -27.2074
  39   1.0000      -0.918620       -24.9969
  40   1.0000      -0.821662       -22.3586
  41   1.0000      -0.805091       -21.9076
  42   1.0000      -0.772499       -21.0208
  43   1.0000      -0.728596       -19.8261
  44   1.0000      -0.686176       -18.6718
  45   1.0000      -0.658061       -17.9067
  46   1.0000      -0.631523       -17.1846
  47   1.0000      -0.619141       -16.8477
  48   1.0000      -0.614513       -16.7217
  49   1.0000      -0.608409       -16.5557
  50   1.0000      -0.596183       -16.2230
  51   1.0000      -0.590900       -16.0792
  52   1.0000      -0.589421       -16.0390
  53   1.0000      -0.575860       -15.6700
  54   1.0000      -0.571996       -15.5648
  55   1.0000      -0.565631       -15.3916
  56   1.0000      -0.559758       -15.2318
  57   1.0000      -0.549697       -14.9580
  58   1.0000      -0.540844       -14.7171
  59   1.0000      -0.532265       -14.4837
  60   1.0000      -0.515504       -14.0276
  61   1.0000      -0.484517       -13.1844
  62   1.0000      -0.480067       -13.0633
  63   1.0000      -0.479649       -13.0519
  64   1.0000      -0.473572       -12.8865
  65   1.0000      -0.468702       -12.7540
  66   1.0000      -0.466546       -12.6954
  67   1.0000      -0.460195       -12.5225
  68   1.0000      -0.454180       -12.3589
  69   1.0000      -0.452113       -12.3026
  70   1.0000      -0.446105       -12.1391
  71   1.0000      -0.443317       -12.0633
  72   1.0000      -0.438634       -11.9358
  73   1.0000      -0.433429       -11.7942
  74   1.0000      -0.432714       -11.7748
  75   1.0000      -0.424024       -11.5383
  76   1.0000      -0.421969       -11.4824
  77   1.0000      -0.420324       -11.4376
  78   1.0000      -0.417241       -11.3537
  79   1.0000      -0.414486       -11.2787
  80   1.0000      -0.414121       -11.2688
  81   1.0000      -0.411128       -11.1874
  82   1.0000      -0.405520       -11.0348
  83   1.0000      -0.402961       -10.9651
  84   1.0000      -0.401612       -10.9284
  85   1.0000      -0.396025       -10.7764
  86   1.0000      -0.380702       -10.3594
  87   1.0000      -0.378032       -10.2868
  88   1.0000      -0.372751       -10.1431
  89   1.0000      -0.360464        -9.8087
  90   1.0000      -0.352833        -9.6011
  91   1.0000      -0.323936        -8.8148
  92   1.0000      -0.247096        -6.7238
  93   1.0000      -0.234218        -6.3734
  94   1.0000      -0.222031        -6.0418
  95   1.0000      -0.210374        -5.7246
  96   0.0000      -0.016123        -0.4387
  97   0.0000       0.001875         0.0510
  98   0.0000       0.010465         0.2848
  99   0.0000       0.043230         1.1763
 100   0.0000       0.059999         1.6327

                 SPIN DOWN ORBITALS
  NO   OCC          E(Eh)            E(eV)
   0   1.0000     -24.659933      -671.0309
   1   1.0000     -24.658891      -671.0025
   2   1.0000     -24.658366      -670.9883
   3   1.0000     -24.658187      -670.9834
   4   1.0000     -24.657195      -670.9564
   5   1.0000     -24.656725      -670.9436
   6   1.0000     -24.656570      -670.9394
   7   1.0000     -24.652387      -670.8256
   8   1.0000     -24.650627      -670.7777
   9   1.0000     -24.646196      -670.6571
  10   1.0000     -24.642692      -670.5618
  11   1.0000     -24.634887      -670.3494
  12   1.0000     -24.610371      -669.6822
  13   1.0000     -24.601976      -669.4538
  14   1.0000     -18.991267      -516.7787
  15   1.0000     -18.990742      -516.7644
  16   1.0000     -10.394407      -282.8462
  17   1.0000     -10.341638      -281.4103
  18   1.0000     -10.340869      -281.3893
  19   1.0000     -10.333600      -281.1916
  20   1.0000     -10.327467      -281.0247
  21   1.0000     -10.275775      -279.6181
  22   1.0000     -10.219305      -278.0814
  23   1.0000     -10.189715      -277.2762
  24   1.0000      -1.320979       -35.9457
  25   1.0000      -1.294284       -35.2193
  26   1.0000      -1.278149       -34.7802
  27   1.0000      -1.272724       -34.6326
  28   1.0000      -1.260395       -34.2971
  29   1.0000      -1.235792       -33.6276
  30   1.0000      -1.233255       -33.5586
  31   1.0000      -1.230314       -33.4785
  32   1.0000      -1.227634       -33.4056
  33   1.0000      -1.220805       -33.2198
  34   1.0000      -1.217085       -33.1186
  35   1.0000      -1.215958       -33.0879
  36   1.0000      -1.201384       -32.6913
  37   1.0000      -1.163708       -31.6661
  38   1.0000      -0.998468       -27.1697
  39   1.0000      -0.916775       -24.9467
  40   1.0000      -0.820010       -22.3136
  41   1.0000      -0.796981       -21.6869
  42   1.0000      -0.764820       -20.8118
  43   1.0000      -0.725813       -19.7504
  44   1.0000      -0.685229       -18.6460
  45   1.0000      -0.657044       -17.8791
  46   1.0000      -0.627487       -17.0748
  47   1.0000      -0.618165       -16.8211
  48   1.0000      -0.613076       -16.6827
  49   1.0000      -0.608295       -16.5526
  50   1.0000      -0.595544       -16.2056
  51   1.0000      -0.589482       -16.0406
  52   1.0000      -0.588075       -16.0023
  53   1.0000      -0.575128       -15.6500
  54   1.0000      -0.569843       -15.5062
  55   1.0000      -0.563797       -15.3417
  56   1.0000      -0.558386       -15.1945
  57   1.0000      -0.547734       -14.9046
  58   1.0000      -0.535183       -14.5631
  59   1.0000      -0.530153       -14.4262
  60   1.0000      -0.513592       -13.9755
  61   1.0000      -0.484451       -13.1826
  62   1.0000      -0.479618       -13.0511
  63   1.0000      -0.474339       -12.9074
  64   1.0000      -0.469926       -12.7873
  65   1.0000      -0.467836       -12.7305
  66   1.0000      -0.459987       -12.5169
  67   1.0000      -0.454003       -12.3540
  68   1.0000      -0.451713       -12.2917
  69   1.0000      -0.451231       -12.2786
  70   1.0000      -0.444571       -12.0974
  71   1.0000      -0.442001       -12.0275
  72   1.0000      -0.437884       -11.9154
  73   1.0000      -0.432974       -11.7818
  74   1.0000      -0.431306       -11.7364
  75   1.0000      -0.422369       -11.4932
  76   1.0000      -0.421032       -11.4569
  77   1.0000      -0.419946       -11.4273
  78   1.0000      -0.415888       -11.3169
  79   1.0000      -0.414271       -11.2729
  80   1.0000      -0.411650       -11.2016
  81   1.0000      -0.410688       -11.1754
  82   1.0000      -0.404655       -11.0112
  83   1.0000      -0.401957       -10.9378
  84   1.0000      -0.399929       -10.8826
  85   1.0000      -0.394910       -10.7460
  86   1.0000      -0.379579       -10.3289
  87   1.0000      -0.376599       -10.2478
  88   1.0000      -0.370972       -10.0947
  89   1.0000      -0.359922        -9.7940
  90   1.0000      -0.349944        -9.5225
  91   1.0000      -0.322023        -8.7627
  92   1.0000      -0.234361        -6.3773
  93   1.0000      -0.219361        -5.9691
  94   1.0000      -0.218003        -5.9322
  95   0.0000      -0.108191        -2.9440
  96   0.0000      -0.013102        -0.3565
  97   0.0000       0.003995         0.1087
  98   0.0000       0.014342         0.3903
  99   0.0000       0.047614         1.2956

MULLIKEN ATOMIC CHARGES AND SPIN POPULATIONS
--------------------------------------------
   0 C :    0.166028   -0.004351
   1 O :   -0.471381    0.021737
   2 O :   -0.484376    0.035004
   3 C :    0.310629   -0.026310
   4 C :    0.112434    0.826302
   5 C :    0.328454    0.009401
   6 C :    0.296801    0.001898
   7 C :    0.271290    0.002838
   8 C :    0.294706    0.000704
   9 C :    0.408326    0.000282
  10 F :   -0.211900    0.031048
  11 F :   -0.206236    0.001161
  12 F :   -0.164971    0.070762
  13 F :   -0.165371   -0.000577
  14 F :   -0.175421    0.027597
  15 F :   -0.158644    0.001547
  16 F :   -0.152312    0.000866
  17 F :   -0.150452   -0.000099
  18 F :   -0.151411    0.000084
  19 F :   -0.147691   -0.000015
  20 F :   -0.145091    0.000045
  21 F :   -0.136094   -0.000008
  22 F :   -0.133565    0.000078
  23 F :   -0.133753    0.000008
Sum of atomic charges         :   -1.0000000

LOEWDIN ATOMIC CHARGES AND SPIN POPULATIONS
-------------------------------------------
   0 C :   -0.683348    0.001446
   1 O :   -0.039010    0.019364
   2 O :   -0.043831    0.036895
   3 C :   -0.454534    0.045035
   4 C :   -0.179280    0.650670
   5 C :   -0.467862    0.066298
   6 C :   -0.452082    0.011244
   7 C :   -0.460499    0.002192
   8 C :   -0.466704    0.000744
   9 C :   -0.667603    0.000204
  10 F :    0.128191    0.034304
  11 F :    0.144332    0.001577
  12 F :    0.218561    0.095616
  13 F :    0.225630    0.000387
  14 F :    0.177481    0.029725
  15 F :    0.215866    0.001879
  16 F :    0.227430    0.002031
  17 F :    0.225065    0.000039
  18 F :    0.223156    0.000185
  19 F :    0.223923    0.000003
  20 F :    0.225573    0.000070
  21 F :    0.225974   -0.000007
  22 F :    0.225913    0.000089
  23 F :    0.227656    0.000011

  Mayer bond orders larger than 0.100000
B(  0-C ,  1-O ) :   1.8761 B(  0-C ,  2-O ) :   1.8088 B(  0-C ,  3-C ) :   0.8884
B(  3-C ,  4-C ) :   0.9968 B(  3-C , 10-F ) :   1.0325 B(  3-C , 11-F ) :   1.0117
B(  4-C ,  5-C ) :   1.0424 B(  4-C , 12-F ) :   1.0580 B(  5-C ,  6-C ) :   0.9391
B(  5-C , 13-F ) :   1.0685 B(  5-C , 14-F ) :   1.0679 B(  6-C ,  7-C ) :   0.9392
B(  6-C , 15-F ) :   1.0806 B(  6-C , 16-F ) :   1.1023 B(  7-C ,  8-C ) :   0.9389
B(  7-C , 17-F ) :   1.0956 B(  7-C , 18-F ) :   1.1002 B(  8-C ,  9-C ) :   0.9718
B(  8-C , 19-F ) :   1.1015 B(  8-C , 20-F ) :   1.1111 B(  9-C , 21-F ) :   1.1582
B(  9-C , 22-F ) :   1.1625 B(  9-C , 23-F ) :   1.1707

Dispersion correction           -0.029585286
FINAL SINGLE POINT ENERGY     -1853.953347521502

DIPOLE MOMENT
-------------

Method             : SCF
Type of density    : Electron Density
Multiplicity       :   2
Irrep              :   0
Energy             : -1853.9237622356085922 Eh
Relativity type    :
Basis              : AO
                                X                 Y                 Z
Electronic contribution:    -14.220511750       1.443876954       4.947386979
Nuclear contribution   :      7.562195159      -0.658156835      -2.774081890
                        -----------------------------------------
Total Dipole Moment    :     -6.658316591       0.785720119       2.173305089
                        -----------------------------------------
Magnitude (a.u.)       :      7.047963602
Magnitude (Debye)      :     17.914499789

VIBRATIONAL FREQUENCIES
-----------------------

Scaling factor for frequencies =  1.000000000  (already applied!)

     0:       0.00 cm**-1
     1:       0.00 cm**-1
     2:       0.00 cm**-1
     3:       0.00 cm**-1
     4:       0.00 cm**-1
     5:       0.00 cm**-1
     6:       9.35 cm**-1
     7:      17.93 cm**-1
     8:      28.34 cm**-1
     9:      37.14 cm**-1
    10:      42.15 cm**-1
    11:      50.15 cm**-1
    12:      56.78 cm**-1
    13:      70.76 cm**-1
    14:     109.03 cm**-1
    15:     112.97 cm**-1
    16:     144.23 cm**-1
    17:     168.45 cm**-1
    18:     181.45 cm**-1
    19:     190.10 cm**-1
    20:     198.28 cm**-1
    21:     219.41 cm**-1
    22:     234.60 cm**-1
    23:     238.86 cm**-1
    24:     241.97 cm**-1
    25:     276.20 cm**-1
    26:     284.27 cm**-1
    27:     301.47 cm**-1
    28:     314.73 cm**-1
    29:     328.91 cm**-1
    30:     340.18 cm**-1
    31:     348.43 cm**-1
    32:     355.34 cm**-1
    33:     369.87 cm**-1
    34:     387.86 cm**-1
    35:     433.56 cm**-1
    36:     455.95 cm**-1
    37:     488.84 cm**-1
    38:     506.28 cm**-1
    39:     519.12 cm**-1
    40:     552.83 cm**-1
    41:     562.89 cm**-1
    42:     587.59 cm**-1
    43:     597.20 cm**-1
    44:     620.84 cm**-1
    45:     649.21 cm**-1
    46:     686.02 cm**-1
    47:     705.55 cm**-1
    48:     739.52 cm**-1
    49:     752.51 cm**-1
    50:     787.65 cm**-1
    51:     867.26 cm**-1
    52:     968.77 cm**-1
    53:     989.57 cm**-1
    54:    1023.09 cm**-1
    55:    1073.12 cm**-1
    56:    1104.09 cm**-1
    57:    1114.08 cm**-1
    58:    1126.63 cm**-1
    59:    1136.26 cm**-1
    60:    1141.58 cm**-1
    61:    1150.60 cm**-1
    62:    1153.64 cm**-1
    63:    1173.42 cm**-1
    64:    1193.14 cm**-1
    65:    1224.84 cm**-1
    66:    1263.97 cm**-1
    67:    1298.55 cm**-1
    68:    1315.98 cm**-1
    69:    1340.56 cm**-1
    70:    1358.02 cm**-1
    71:    1703.79 cm**-1

IR SPECTRUM
-----------

 Mode   freq       eps      Int      T**2         TX        TY        TZ
       cm**-1   L/(mol*cm) km/mol    a.u.
----------------------------------------------------------------------------
  6:      9.35   0.000569    2.87  0.018973  ( 0.029479 -0.134342  0.007501)
  7:     17.93   0.000809    4.09  0.014090  ( 0.111679 -0.004953  0.039912)
  8:     28.34   0.000078    0.39  0.000857  ( 0.023076 -0.003339  0.017702)
  9:     37.14   0.000016    0.08  0.000131  ( 0.004406 -0.000049 -0.010555)
 10:     42.15   0.000226    1.14  0.001673  (-0.037072 -0.015033 -0.008533)
 11:     50.15   0.000212    1.07  0.001319  ( 0.020514  0.019544 -0.022718)
 12:     56.78   0.000137    0.69  0.000755  ( 0.022146 -0.015714 -0.004171)
 13:     70.76   0.000281    1.42  0.001239  ( 0.019536 -0.028843  0.005014)
 14:    109.03   0.000207    1.05  0.000593  ( 0.023737  0.003767  0.003900)
 15:    112.97   0.002299   11.62  0.006352  (-0.067768 -0.016789  0.038438)
 16:    144.23   0.000602    3.04  0.001302  (-0.023868  0.010946  0.024753)
 17:    168.45   0.000055    0.28  0.000103  ( 0.003028  0.004992 -0.008284)
 18:    181.45   0.002568   12.98  0.004416  ( 0.028194 -0.006180 -0.059856)
 19:    190.10   0.001628    8.23  0.002673  ( 0.010254  0.023858 -0.044705)
 20:    198.28   0.000871    4.40  0.001371  (-0.006897  0.031821  0.017624)
 21:    219.41   0.000037    0.19  0.000053  ( 0.006814  0.000809  0.002377)
 22:    234.60   0.000292    1.48  0.000388  ( 0.010712  0.016454  0.001697)
 23:    238.86   0.000125    0.63  0.000164  (-0.009569 -0.005308  0.006622)
 24:    241.97   0.000590    2.98  0.000761  (-0.023011 -0.014724 -0.003784)
 25:    276.20   0.001405    7.10  0.001588  ( 0.038188 -0.011023  0.002862)
 26:    284.27   0.000127    0.64  0.000139  (-0.004751 -0.002397 -0.010536)
 27:    301.47   0.000127    0.64  0.000132  ( 0.006017  0.008653 -0.004521)
 28:    314.73   0.000607    3.07  0.000602  (-0.022326 -0.001979  0.009961)
 29:    328.91   0.000234    1.18  0.000222  ( 0.013656  0.005905  0.000564)
 30:    340.18   0.000723    3.65  0.000663  (-0.018325 -0.013114 -0.012475)
 31:    348.43   0.000207    1.04  0.000185  (-0.005107 -0.003348 -0.012152)
 32:    355.34   0.000036    0.18  0.000031  ( 0.004644 -0.002846  0.001287)
 33:    369.87   0.000093    0.47  0.000078  ( 0.008582 -0.001360 -0.001724)
 34:    387.86   0.000275    1.39  0.000222  ( 0.006350 -0.012723 -0.004397)
 35:    433.56   0.002272   11.48  0.001635  (-0.037840 -0.012695  0.006483)
 36:    455.95   0.000688    3.47  0.000471  ( 0.016205  0.000451  0.014415)
 37:    488.84   0.011519   58.21  0.007354  (-0.085405  0.002959 -0.007140)
 38:    506.28   0.001112    5.62  0.000685  ( 0.025178  0.006028  0.003896)
 39:    519.12   0.002361   11.93  0.001419  ( 0.019935 -0.029012 -0.013419)
 40:    552.83   0.004182   21.14  0.002361  (-0.030681 -0.035098 -0.013696)
 41:    562.89   0.003061   15.47  0.001697  (-0.034643 -0.022074 -0.003060)
 42:    587.59   0.001296    6.55  0.000688  ( 0.011779 -0.008703  0.021766)
 43:    597.20   0.004898   24.75  0.002560  (-0.049738  0.006241  0.006836)
 44:    620.84   0.004648   23.49  0.002336  ( 0.045178 -0.002524  0.017001)
 45:    649.21   0.021263  107.46  0.010221  ( 0.100258  0.001668  0.012902)
 46:    686.02   0.032627  164.88  0.014842  ( 0.120966 -0.011854  0.008274)
 47:    705.55   0.001841    9.30  0.000814  ( 0.019857 -0.005160 -0.019833)
 48:    739.52   0.013939   70.44  0.005882  ( 0.019196  0.001619 -0.074234)
 49:    752.51   0.005458   27.58  0.002264  (-0.012790  0.016776 -0.042644)
 50:    787.65   0.013801   69.74  0.005468  ( 0.054258  0.029809  0.040438)
 51:    867.26   0.001650    8.34  0.000594  ( 0.009004  0.011607 -0.019443)
 52:    968.77   0.047803  241.58  0.015398  ( 0.035326 -0.115105  0.030023)
 53:    989.57   0.041910  211.79  0.013216  (-0.066598 -0.065136  0.067368)
 54:   1023.09   0.028859  145.84  0.008802  ( 0.003824 -0.069942  0.062417)
 55:   1073.12   0.025275  127.73  0.007350  (-0.045366  0.011575 -0.071819)
 56:   1104.09   0.012957   65.48  0.003662  (-0.035214 -0.011410 -0.047875)
 57:   1114.08   0.026606  134.46  0.007453  (-0.029252 -0.067470 -0.045220)
 58:   1126.63   0.120706  610.00  0.033434  ( 0.023456 -0.135037 -0.121033)
 59:   1136.26   0.029270  147.92  0.008039  (-0.009463 -0.049148  0.074390)
 60:   1141.58   0.035098  177.37  0.009595  (-0.004433  0.085473 -0.047636)
 61:   1150.60   0.068594  346.64  0.018604  ( 0.034225 -0.123578 -0.046487)
 62:   1153.64   0.089399  451.79  0.024183  ( 0.055879  0.052313 -0.135365)
 63:   1173.42   0.097976  495.13  0.026056  (-0.046049 -0.074943  0.135348)
 64:   1193.14   0.003819   19.30  0.000999  ( 0.023480 -0.020675  0.004476)
 65:   1224.84   0.027870  140.84  0.007101  ( 0.062899 -0.034893 -0.043896)
 66:   1263.97   0.005770   29.16  0.001425  (-0.001681  0.031531  0.020679)
 67:   1298.55   0.062268  314.68  0.014964  ( 0.074986  0.033005  0.090840)
 68:   1315.98   0.004406   22.26  0.001045  ( 0.027210  0.016911 -0.004283)
 69:   1340.56   0.021832  110.33  0.005082  ( 0.051423 -0.008550 -0.048629)
 70:   1358.02   0.014847   75.03  0.003412  ( 0.006857  0.012450 -0.056654)
 71:   1703.79   0.157681  796.86  0.028881  ( 0.104233 -0.134116 -0.005389)

--------------------------
THERMOCHEMISTRY AT 298.15K
--------------------------

Temperature         ...   298.15 K
Pressure            ...     1.00 atm
Total Mass          ...   394.06 AMU
Quasi RRHO          ...     True
Cut-Off Frequency   ...     1.00 cm^-1

Throughout the following assumptions are being made:
  (1) The electronic state is orbitally nondegenerate
      but the spin degeneracy is treated
  (2) There are no thermally accessible electronically excited states
  (3) Hindered rotations indicated by low frequency modes are not
      treated as such but are treated as vibrations and this may
      cause some error
  (4) All equations used are the standard statistical mechanics
      equations for an ideal gas
  (5) All vibrations are strictly harmonic

freq.       9.35  E(vib)   ...       0.58
freq.      17.93  E(vib)   ...       0.57
freq.      28.34  E(vib)   ...       0.55
freq.      37.14  E(vib)   ...       0.54
freq.      42.15  E(vib)   ...       0.53
freq.      50.15  E(vib)   ...       0.52
freq.      56.78  E(vib)   ...       0.52
freq.      70.76  E(vib)   ...       0.50
freq.     109.03  E(vib)   ...       0.45
freq.     112.97  E(vib)   ...       0.45
freq.     144.23  E(vib)   ...       0.41
freq.     168.45  E(vib)   ...       0.38
freq.     181.45  E(vib)   ...       0.37
freq.     190.10  E(vib)   ...       0.36
freq.     198.28  E(vib)   ...       0.35
freq.     219.41  E(vib)   ...       0.33
freq.     234.60  E(vib)   ...       0.32
freq.     238.86  E(vib)   ...       0.32
freq.     241.97  E(vib)   ...       0.31
freq.     276.20  E(vib)   ...       0.28
freq.     284.27  E(vib)   ...       0.28
freq.     301.47  E(vib)   ...       0.26
freq.     314.73  E(vib)   ...       0.25
freq.     328.91  E(vib)   ...       0.24
freq.     340.18  E(vib)   ...       0.23
freq.     348.43  E(vib)   ...       0.23
freq.     355.34  E(vib)   ...       0.22
freq.     369.87  E(vib)   ...       0.21
freq.     387.86  E(vib)   ...       0.20
freq.     433.56  E(vib)   ...       0.17
freq.     455.95  E(vib)   ...       0.16
freq.     488.84  E(vib)   ...       0.15
freq.     506.28  E(vib)   ...       0.14
freq.     519.12  E(vib)   ...       0.13
freq.     552.83  E(vib)   ...       0.12
freq.     562.89  E(vib)   ...       0.11
freq.     587.59  E(vib)   ...       0.10
freq.     597.20  E(vib)   ...       0.10
freq.     620.84  E(vib)   ...       0.09
freq.     649.21  E(vib)   ...       0.08
freq.     686.02  E(vib)   ...       0.07
freq.     705.55  E(vib)   ...       0.07
freq.     739.52  E(vib)   ...       0.06
freq.     752.51  E(vib)   ...       0.06
freq.     787.65  E(vib)   ...       0.05
freq.     867.26  E(vib)   ...       0.04
freq.     968.77  E(vib)   ...       0.03
freq.     989.57  E(vib)   ...       0.02
freq.    1023.09  E(vib)   ...       0.02
freq.    1073.12  E(vib)   ...       0.02
freq.    1104.09  E(vib)   ...       0.02
freq.    1114.08  E(vib)   ...       0.01
freq.    1126.63  E(vib)   ...       0.01
freq.    1136.26  E(vib)   ...       0.01
freq.    1141.58  E(vib)   ...       0.01
freq.    1150.60  E(vib)   ...       0.01
freq.    1153.64  E(vib)   ...       0.01
freq.    1173.42  E(vib)   ...       0.01
freq.    1193.14  E(vib)   ...       0.01
freq.    1224.84  E(vib)   ...       0.01
freq.    1263.97  E(vib)   ...       0.01
freq.    1298.55  E(vib)   ...       0.01
freq.    1315.98  E(vib)   ...       0.01
freq.    1340.56  E(vib)   ...       0.01
freq.    1358.02  E(vib)   ...       0.01
freq.    1703.79  E(vib)   ...       0.00

------------
INNER ENERGY
------------

The inner energy is: U= E(el) + E(ZPE) + E(vib) + E(rot) + E(trans)
    E(el)   - is the total energy from the electronic structure calculation
              = E(kin-el) + E(nuc-el) + E(el-el) + E(nuc-nuc)
    E(ZPE)  - the the zero temperature vibrational energy from the frequency calculation
    E(vib)  - the the finite temperature correction to E(ZPE) due to population
              of excited vibrational states
    E(rot)  - is the rotational thermal energy
    E(trans)- is the translational thermal energy

Summary of contributions to the inner energy U:
Electronic energy                ...  -1853.95334752 Eh
Zero point energy                ...      0.09118538 Eh      57.22 kcal/mol
Thermal vibrational correction   ...      0.02032609 Eh      12.75 kcal/mol
Thermal rotational correction    ...      0.00141627 Eh       0.89 kcal/mol
Thermal translational correction ...      0.00141627 Eh       0.89 kcal/mol
-----------------------------------------------------------------------
Total thermal energy                  -1853.83900351 Eh

Summary of corrections to the electronic energy:
(perhaps to be used in another calculation)
Total thermal correction                  0.02315863 Eh      14.53 kcal/mol
Non-thermal (ZPE) correction              0.09118538 Eh      57.22 kcal/mol
-----------------------------------------------------------------------
Total correction                          0.11434402 Eh      71.75 kcal/mol

--------
ENTHALPY
--------

The enthalpy is H = U + kB*T
                kB is Boltzmann's constant
Total thermal energy              ...  -1853.83900351 Eh
Thermal Enthalpy correction       ...      0.00094421 Eh       0.59 kcal/mol
-----------------------------------------------------------------------
Total Enthalpy                    ...  -1853.83805930 Eh

Note: Only C1 symmetry has been detected, increase convergence thresholds
      if your molecule has a higher symmetry. Symmetry factor of 1.0 is
      used for the rotational entropy correction.

Note: Rotational entropy computed according to Herzberg
Infrared and Raman Spectra, Chapter V,1, Van Nostrand Reinhold, 1945
Point Group:  C1, Symmetry Number:   1
Rotational constants in cm-1:     0.018792     0.004367     0.004170

Vibrational entropy computed according to the QRRHO of S. Grimme
Chem.Eur.J. 2012 18 9955 using a reference frequency of 100.0 cm-1

-------
ENTROPY
-------

The entropy contributions are T*S = T*(S(el)+S(vib)+S(rot)+S(trans))
     S(el)   - electronic entropy
     S(vib)  - vibrational entropy
     S(rot)  - rotational entropy
     S(trans)- translational entropy
The entropies will be listed as multiplied by the temperature to get
units of energy

Electronic entropy                ...      0.00065446 Eh      0.41 kcal/mol
Vibrational entropy               ...      0.03753197 Eh     23.55 kcal/mol
Rotational entropy                ...      0.01653918 Eh     10.38 kcal/mol
Translational entropy             ...      0.02081341 Eh     13.06 kcal/mol
-----------------------------------------------------------------------

                             ****ORCA TERMINATED NORMALLY****
TOTAL RUN TIME: 0 days 0 hours 24 minutes 20 seconds 389 msec
