                         Program Version 6.0.1  -  RELEASE   -
|  1> !B3LYP def2-TZVP opt d3 TightSCF SlowConv defgrid2
|  2>
|  3> %pal
|  4> nprocs 20
|  5> end
|  6>
|  7> %scf
|  8> MaxIter 1500
|  9> end
| 10>
| 11> %maxcore 8000
| 12>
| 13> !CPCM
| 14> %cpcm smd true
| 15> SMDsolvent "ACETONITRILE"
| 16> end
| 17>
| 18> * xyz 0 2
| 19> 6        4.790427000     -0.033865800     -0.529943200
| 20> 8        5.449345000     -1.206924000     -0.894594600
| 21> 8        4.978223000      1.323071000     -0.737377200
| 22> 6        3.506687600     -0.338741600      0.376153800
| 23> 6        2.222300000      0.400524800     -0.110681600
| 24> 6        0.900506800     -0.386389800      0.175703000
| 25> 6       -0.395261200      0.487294000      0.065549000
| 26> 6       -1.705693600     -0.364773800     -0.068373600
| 27> 6       -3.005136200      0.445344800      0.258164000
| 28> 6       -4.319880200     -0.214526000     -0.270540800
| 29> 9        3.211587400     -1.692050400      0.412735200
| 30> 9        2.125696800      1.616867800      0.483236600
| 31> 9        2.314152400      0.589704000     -1.455769200
| 32> 9        0.794028800     -1.413561400     -0.700839000
| 33> 9        0.958350600     -0.884509000      1.435093400
| 34> 9       -0.498373400      1.260265600      1.173340200
| 35> 9       -0.299075000      1.289512600     -1.020910800
| 36> 9       -1.641790400     -1.418189000      0.779523800
| 37> 9       -1.792381400     -0.831391600     -1.336863600
| 38> 9       -2.918792200      1.679227200     -0.295171200
| 39> 9       -3.119771000      0.573779800      1.598579800
| 40> 9       -4.383115600     -1.504377600      0.089127600
| 41> 9       -5.365669800      0.430528600      0.260394200
| 42> 9       -4.396020400     -0.128550600     -1.602941800
| 43> 1        5.903122371     -2.014774547     -1.145719253
| 44> *
| 45>
| 46>                          ****END OF INPUT****
 Total Charge           Charge          ....    0
 Multiplicity           Mult            ....    2
 Number of Electrons    NEL             ....  191
Dispersion correction           -0.042784611
FINAL SINGLE POINT ENERGY     -1853.623825343449
Dispersion correction             ... done (  0.0 sec)
Dispersion correction           -0.042978721
FINAL SINGLE POINT ENERGY     -1853.674614458216
Dispersion correction             ... done (  0.0 sec)
Dispersion correction           -0.043080761
FINAL SINGLE POINT ENERGY     -1853.687825829813
Dispersion correction             ... done (  0.0 sec)
FINAL SINGLE POINT ENERGY     -1853.695062472283
FINAL SINGLE POINT ENERGY     -1853.695718289300
FINAL SINGLE POINT ENERGY     -1853.698620203576
FINAL SINGLE POINT ENERGY     -1853.701544524375
FINAL SINGLE POINT ENERGY     -1853.703473639349
FINAL SINGLE POINT ENERGY     -1853.710903265364
FINAL SINGLE POINT ENERGY     -1853.715346080571
FINAL SINGLE POINT ENERGY     -1853.743046618969
FINAL SINGLE POINT ENERGY     -1853.743208164693
FINAL SINGLE POINT ENERGY     -1853.743112098269
FINAL SINGLE POINT ENERGY     -1853.743248333471
FINAL SINGLE POINT ENERGY     -1853.743245518606
FINAL SINGLE POINT ENERGY     -1853.743254107650
FINAL SINGLE POINT ENERGY     -1853.743256369594
Dispersion correction             ... done (  0.0 sec)
Dispersion correction           -0.042966850
FINAL SINGLE POINT ENERGY     -1853.743258957570
Dispersion correction             ... done (  0.0 sec)
Dispersion correction           -0.042966759
FINAL SINGLE POINT ENERGY     -1853.743260225820
Dispersion correction             ... done (  0.0 sec)
                    ***********************HURRAY********************

CARTESIAN COORDINATES (ANGSTROEM)
---------------------------------
  C      4.750173   -0.142199   -0.282166
  O      5.660645   -1.098881   -0.068133
  O      4.994945    1.029650   -0.473682
  C      3.392570   -0.666116   -0.268551
  C      2.173233    0.178800   -0.517064
  C      0.839320   -0.538051   -0.120284
  C     -0.408858    0.414750   -0.083306
  C     -1.773366   -0.362067   -0.115432
  C     -2.984950    0.502631    0.375363
  C     -4.381723   -0.064385   -0.038637
  F      3.205608   -1.968927   -0.178326
  F      2.249367    1.335543    0.184124
  F      2.103543    0.509267   -1.838853
  F      0.605985   -1.532876   -1.000847
  F      0.990375   -1.068448    1.110792
  F     -0.353283    1.148405    1.045761
  F     -0.374597    1.247471   -1.140565
  F     -1.688455   -1.449935    0.675634
  F     -2.005558   -0.766881   -1.379265
  F     -2.885659    1.750177   -0.125218
  F     -2.952566    0.567950    1.719074
  F     -4.474365   -1.358033    0.278230
  F     -5.330010    0.607846    0.616685
  F     -4.586504    0.079417   -1.347180
  H      6.547596   -0.691613   -0.090281

 Multiplicity           Mult            ....    2
 Number of Electrons    NEL             ....  191
 Basis Dimension        Dim             ....  750

ORBITAL ENERGIES
----------------
                 SPIN UP ORBITALS
  NO   OCC          E(Eh)            E(eV)
   0   1.0000     -24.755064      -673.6195
   1   1.0000     -24.746662      -673.3909
   2   1.0000     -24.746365      -673.3828
   3   1.0000     -24.746309      -673.3813
   4   1.0000     -24.745949      -673.3715
   5   1.0000     -24.745629      -673.3628
   6   1.0000     -24.745132      -673.3493
   7   1.0000     -24.745006      -673.3458
   8   1.0000     -24.744935      -673.3439
   9   1.0000     -24.744450      -673.3307
  10   1.0000     -24.744405      -673.3295
  11   1.0000     -24.743269      -673.2986
  12   1.0000     -24.734800      -673.0681
  13   1.0000     -24.731531      -672.9792
  14   1.0000     -19.192518      -522.2550
  15   1.0000     -19.143003      -520.9076
  16   1.0000     -10.463065      -284.7145
  17   1.0000     -10.411744      -283.3180
  18   1.0000     -10.411063      -283.2994
  19   1.0000     -10.409646      -283.2609
  20   1.0000     -10.407801      -283.2107
  21   1.0000     -10.403622      -283.0970
  22   1.0000     -10.335490      -281.2430
  23   1.0000     -10.326798      -281.0065
  24   1.0000      -1.355625       -36.8884
  25   1.0000      -1.335409       -36.3383
  26   1.0000      -1.320943       -35.9447
  27   1.0000      -1.310561       -35.6622
  28   1.0000      -1.310193       -35.6522
  29   1.0000      -1.300835       -35.3975
  30   1.0000      -1.295052       -35.2402
  31   1.0000      -1.269835       -34.5540
  32   1.0000      -1.264614       -34.4119
  33   1.0000      -1.262308       -34.3491
  34   1.0000      -1.258125       -34.2353
  35   1.0000      -1.253298       -34.1040
  36   1.0000      -1.252049       -34.0700
  37   1.0000      -1.241955       -33.7953
  38   1.0000      -1.132019       -30.8038
  39   1.0000      -1.047701       -28.5094
  40   1.0000      -0.853783       -23.2326
  41   1.0000      -0.841499       -22.8983
  42   1.0000      -0.816921       -22.2296
  43   1.0000      -0.781248       -21.2588
  44   1.0000      -0.741198       -20.1690
  45   1.0000      -0.705062       -19.1857
  46   1.0000      -0.686638       -18.6844
  47   1.0000      -0.659593       -17.9484
  48   1.0000      -0.653894       -17.7934
  49   1.0000      -0.648836       -17.6557
  50   1.0000      -0.640717       -17.4348
  51   1.0000      -0.634123       -17.2554
  52   1.0000      -0.631688       -17.1891
  53   1.0000      -0.626858       -17.0577
  54   1.0000      -0.616744       -16.7825
  55   1.0000      -0.611862       -16.6496
  56   1.0000      -0.606460       -16.5026
  57   1.0000      -0.602196       -16.3866
  58   1.0000      -0.593819       -16.1586
  59   1.0000      -0.589416       -16.0388
  60   1.0000      -0.583590       -15.8803
  61   1.0000      -0.562806       -15.3147
  62   1.0000      -0.542010       -14.7488
  63   1.0000      -0.522156       -14.2086
  64   1.0000      -0.518007       -14.0957
  65   1.0000      -0.516407       -14.0522
  66   1.0000      -0.511040       -13.9061
  67   1.0000      -0.506949       -13.7948
  68   1.0000      -0.503235       -13.6937
  69   1.0000      -0.500796       -13.6273
  70   1.0000      -0.498232       -13.5576
  71   1.0000      -0.491896       -13.3852
  72   1.0000      -0.488846       -13.3022
  73   1.0000      -0.485571       -13.2131
  74   1.0000      -0.483144       -13.1470
  75   1.0000      -0.477369       -12.9899
  76   1.0000      -0.476331       -12.9616
  77   1.0000      -0.470877       -12.8132
  78   1.0000      -0.465620       -12.6702
  79   1.0000      -0.460865       -12.5408
  80   1.0000      -0.457759       -12.4562
  81   1.0000      -0.455368       -12.3912
  82   1.0000      -0.452998       -12.3267
  83   1.0000      -0.449048       -12.2192
  84   1.0000      -0.447780       -12.1847
  85   1.0000      -0.444739       -12.1020
  86   1.0000      -0.443573       -12.0702
  87   1.0000      -0.441928       -12.0255
  88   1.0000      -0.438775       -11.9397
  89   1.0000      -0.430681       -11.7194
  90   1.0000      -0.421111       -11.4590
  91   1.0000      -0.390648       -10.6301
  92   1.0000      -0.356915        -9.7122
  93   1.0000      -0.353940        -9.6312
  94   1.0000      -0.315538        -8.5862
  95   1.0000      -0.272825        -7.4239
  96   0.0000      -0.015992        -0.4352
  97   0.0000      -0.005093        -0.1386
  98   0.0000       0.009530         0.2593
  99   0.0000       0.034461         0.9377
 100   0.0000       0.046469         1.2645

                 SPIN DOWN ORBITALS
  NO   OCC          E(Eh)            E(eV)
   0   1.0000     -24.750646      -673.4993
   1   1.0000     -24.746662      -673.3909
   2   1.0000     -24.746365      -673.3828
   3   1.0000     -24.746308      -673.3813
   4   1.0000     -24.745949      -673.3715
   5   1.0000     -24.745629      -673.3628
   6   1.0000     -24.745132      -673.3493
   7   1.0000     -24.745003      -673.3458
   8   1.0000     -24.744935      -673.3439
   9   1.0000     -24.744408      -673.3296
  10   1.0000     -24.744405      -673.3295
  11   1.0000     -24.743217      -673.2972
  12   1.0000     -24.734238      -673.0528
  13   1.0000     -24.730156      -672.9418
  14   1.0000     -19.192116      -522.2440
  15   1.0000     -19.138679      -520.7899
  16   1.0000     -10.463065      -284.7145
  17   1.0000     -10.411746      -283.3180
  18   1.0000     -10.411070      -283.2996
  19   1.0000     -10.409646      -283.2609
  20   1.0000     -10.407770      -283.2098
  21   1.0000     -10.404249      -283.1140
  22   1.0000     -10.336634      -281.2741
  23   1.0000     -10.313888      -280.6552
  24   1.0000      -1.355624       -36.8884
  25   1.0000      -1.335275       -36.3347
  26   1.0000      -1.320498       -35.9326
  27   1.0000      -1.310420       -35.6583
  28   1.0000      -1.309923       -35.6448
  29   1.0000      -1.298914       -35.3452
  30   1.0000      -1.286358       -35.0036
  31   1.0000      -1.269821       -34.5536
  32   1.0000      -1.264551       -34.4102
  33   1.0000      -1.262305       -34.3491
  34   1.0000      -1.258019       -34.2324
  35   1.0000      -1.253246       -34.1026
  36   1.0000      -1.252014       -34.0690
  37   1.0000      -1.239771       -33.7359
  38   1.0000      -1.129408       -30.7327
  39   1.0000      -1.041896       -28.3514
  40   1.0000      -0.852195       -23.1894
  41   1.0000      -0.835609       -22.7381
  42   1.0000      -0.809738       -22.0341
  43   1.0000      -0.774596       -21.0778
  44   1.0000      -0.737941       -20.0804
  45   1.0000      -0.704080       -19.1590
  46   1.0000      -0.686284       -18.6747
  47   1.0000      -0.657409       -17.8890
  48   1.0000      -0.653542       -17.7838
  49   1.0000      -0.647556       -17.6209
  50   1.0000      -0.640655       -17.4331
  51   1.0000      -0.633611       -17.2414
  52   1.0000      -0.630875       -17.1670
  53   1.0000      -0.625944       -17.0328
  54   1.0000      -0.615745       -16.7553
  55   1.0000      -0.611044       -16.6273
  56   1.0000      -0.605761       -16.4836
  57   1.0000      -0.600446       -16.3390
  58   1.0000      -0.591185       -16.0870
  59   1.0000      -0.587247       -15.9798
  60   1.0000      -0.581812       -15.8319
  61   1.0000      -0.559567       -15.2266
  62   1.0000      -0.521600       -14.1935
  63   1.0000      -0.517861       -14.0917
  64   1.0000      -0.514884       -14.0107
  65   1.0000      -0.514111       -13.9897
  66   1.0000      -0.509530       -13.8650
  67   1.0000      -0.505712       -13.7611
  68   1.0000      -0.502955       -13.6861
  69   1.0000      -0.500543       -13.6205
  70   1.0000      -0.496766       -13.5177
  71   1.0000      -0.491565       -13.3762
  72   1.0000      -0.488298       -13.2873
  73   1.0000      -0.484430       -13.1820
  74   1.0000      -0.481869       -13.1123
  75   1.0000      -0.476140       -12.9564
  76   1.0000      -0.473774       -12.8920
  77   1.0000      -0.465616       -12.6701
  78   1.0000      -0.462912       -12.5965
  79   1.0000      -0.458560       -12.4780
  80   1.0000      -0.457179       -12.4405
  81   1.0000      -0.455287       -12.3890
  82   1.0000      -0.452854       -12.3228
  83   1.0000      -0.448631       -12.2079
  84   1.0000      -0.447677       -12.1819
  85   1.0000      -0.443672       -12.0729
  86   1.0000      -0.441619       -12.0171
  87   1.0000      -0.440712       -11.9924
  88   1.0000      -0.437594       -11.9075
  89   1.0000      -0.428034       -11.6474
  90   1.0000      -0.419602       -11.4179
  91   1.0000      -0.389296       -10.5933
  92   1.0000      -0.353039        -9.6067
  93   1.0000      -0.341523        -9.2933
  94   1.0000      -0.310399        -8.4464
  95   0.0000      -0.143760        -3.9119
  96   0.0000      -0.015121        -0.4115
  97   0.0000       0.001043         0.0284
  98   0.0000       0.019017         0.5175
  99   0.0000       0.036485         0.9928

MULLIKEN ATOMIC CHARGES AND SPIN POPULATIONS
--------------------------------------------
   0 C :    0.260151   -0.043376
   1 O :   -0.377361    0.016403
   2 O :   -0.322176    0.158240
   3 C :    0.192679    0.756374
   4 C :    0.377193   -0.003958
   5 C :    0.337077   -0.005992
   6 C :    0.335907    0.000225
   7 C :    0.312357   -0.000081
   8 C :    0.324278    0.000008
   9 C :    0.475981   -0.000003
  10 F :   -0.141035    0.086964
  11 F :   -0.172346    0.009866
  12 F :   -0.180974    0.025612
  13 F :   -0.171081    0.000855
  14 F :   -0.170375    0.000863
  15 F :   -0.166827    0.000005
  16 F :   -0.165678   -0.000015
  17 F :   -0.167288    0.000006
  18 F :   -0.166638    0.000002
  19 F :   -0.165102   -0.000002
  20 F :   -0.162269    0.000001
  21 F :   -0.154914   -0.000000
  22 F :   -0.151960   -0.000001
  23 F :   -0.152276   -0.000000
  24 H :    0.372677   -0.001997
Sum of atomic charges         :    0.0000000

LOEWDIN ATOMIC CHARGES AND SPIN POPULATIONS
-------------------------------------------
   0 C :   -0.516289    0.057327
   1 O :    0.126574    0.013638
   2 O :    0.104925    0.135491
   3 C :   -0.149073    0.590654
   4 C :   -0.457179    0.049728
   5 C :   -0.448506    0.000530
   6 C :   -0.455165   -0.000115
   7 C :   -0.456536   -0.000024
   8 C :   -0.462710   -0.000006
   9 C :   -0.664261   -0.000002
  10 F :    0.266578    0.109477
  11 F :    0.214716    0.012478
  12 F :    0.194800    0.029268
  13 F :    0.223045    0.001048
  14 F :    0.223368    0.001143
  15 F :    0.225044    0.000014
  16 F :    0.226821    0.000068
  17 F :    0.225590    0.000011
  18 F :    0.225760    0.000010
  19 F :    0.224072    0.000002
  20 F :    0.224849    0.000001
  21 F :    0.225392    0.000000
  22 F :    0.226287   -0.000001
  23 F :    0.227537    0.000000
  24 H :    0.224361   -0.000741

  Mayer bond orders larger than 0.100000
B(  0-C ,  1-O ) :   1.2825 B(  0-C ,  2-O ) :   1.9851 B(  0-C ,  3-C ) :   1.1161
B(  1-O , 24-H ) :   0.8306 B(  3-C ,  4-C ) :   1.0134 B(  3-C , 10-F ) :   1.1118
B(  4-C ,  5-C ) :   0.9433 B(  4-C , 11-F ) :   1.0620 B(  4-C , 12-F ) :   1.0595
B(  5-C ,  6-C ) :   0.9460 B(  5-C , 13-F ) :   1.0669 B(  5-C , 14-F ) :   1.0799
B(  6-C ,  7-C ) :   0.9321 B(  6-C , 15-F ) :   1.0870 B(  6-C , 16-F ) :   1.0874
B(  7-C ,  8-C ) :   0.9256 B(  7-C , 17-F ) :   1.0828 B(  7-C , 18-F ) :   1.0876
B(  8-C ,  9-C ) :   0.9695 B(  8-C , 19-F ) :   1.0875 B(  8-C , 20-F ) :   1.0980
B(  9-C , 21-F ) :   1.1431 B(  9-C , 22-F ) :   1.1490 B(  9-C , 23-F ) :   1.1559

Dispersion correction           -0.042967422
FINAL SINGLE POINT ENERGY     -1853.743261527859

DIPOLE MOMENT
-------------

Method             : SCF
Type of density    : Electron Density
Multiplicity       :   2
Irrep              :   0
Energy             : -1853.7002941058135548 Eh
Relativity type    :
Basis              : AO
                                X                 Y                 Z
Electronic contribution:    -16.796090445      -0.115301515       0.440293436
Nuclear contribution   :     17.679756873      -0.637622485      -0.260066181
                        -----------------------------------------
Total Dipole Moment    :      0.883666427      -0.752924000       0.180227255
                        -----------------------------------------
Magnitude (a.u.)       :      1.174837337
Magnitude (Debye)      :      2.986199193

Rotational constants in cm-1:             0.023237             0.003944             0.003817
Rotational constants in MHz :           696.619838           118.239461           114.445764

                             ****ORCA TERMINATED NORMALLY****
TOTAL RUN TIME: 0 days 0 hours 44 minutes 55 seconds 184 msec
