                         Program Version 5.0.3 -  RELEASE  -
|  1> !B3LYP def2-TZVP opt d3 TightSCF SlowConv defgrid2
|  2>
|  3> %pal
|  4> nprocs 20
|  5> end
|  6>
|  7> %scf
|  8> MaxIter 1500
|  9> end
| 10>
| 11> %maxcore 8000
| 12>
| 13> !CPCM
| 14> %cpcm smd true
| 15> SMDsolvent "ACETONITRILE"
| 16> end
| 17>
| 18> * xyz -1 2
| 19> 6        4.790427000     -0.033865800     -0.529943200
| 20> 8        5.449345000     -1.206924000     -0.894594600
| 21> 8        4.978223000      1.323071000     -0.737377200
| 22> 6        3.506687600     -0.338741600      0.376153800
| 23> 6        2.222300000      0.400524800     -0.110681600
| 24> 6        0.900506800     -0.386389800      0.175703000
| 25> 6       -0.395261200      0.487294000      0.065549000
| 26> 6       -1.705693600     -0.364773800     -0.068373600
| 27> 6       -3.005136200      0.445344800      0.258164000
| 28> 6       -4.319880200     -0.214526000     -0.270540800
| 29> 9        3.211587400     -1.692050400      0.412735200
| 30> 9        3.741061800      0.055285800      1.689948800
| 31> 9        2.125696800      1.616867800      0.483236600
| 32> 9        2.314152400      0.589704000     -1.455769200
| 33> 9        0.958350600     -0.884509000      1.435093400
| 34> 9       -0.498373400      1.260265600      1.173340200
| 35> 9       -0.299075000      1.289512600     -1.020910800
| 36> 9       -1.641790400     -1.418189000      0.779523800
| 37> 9       -1.792381400     -0.831391600     -1.336863600
| 38> 9       -2.918792200      1.679227200     -0.295171200
| 39> 9       -3.119771000      0.573779800      1.598579800
| 40> 9       -4.383115600     -1.504377600      0.089127600
| 41> 9       -5.365669800      0.430528600      0.260394200
| 42> 9       -4.396020400     -0.128550600     -1.602941800
| 43> *
| 44>
| 45>                          ****END OF INPUT****
 Total Charge           Charge          ....   -1
 Multiplicity           Mult            ....    2
 Number of Electrons    NEL             ....  191
Dispersion correction           -0.041481638
FINAL SINGLE POINT ENERGY     -1853.219899246172
Dispersion correction            ... done
Dispersion correction           -0.041689242
FINAL SINGLE POINT ENERGY     -1853.264866861752
Dispersion correction            ... done
Dispersion correction           -0.041775841
FINAL SINGLE POINT ENERGY     -1853.273337564233
Dispersion correction            ... done
FINAL SINGLE POINT ENERGY     -1853.278150887104
FINAL SINGLE POINT ENERGY     -1853.279840901534
FINAL SINGLE POINT ENERGY     -1853.281133901273
FINAL SINGLE POINT ENERGY     -1853.282168975938
FINAL SINGLE POINT ENERGY     -1853.282749505621
FINAL SINGLE POINT ENERGY     -1853.283189090273
FINAL SINGLE POINT ENERGY     -1853.283555072367
FINAL SINGLE POINT ENERGY     -1853.284154382718
FINAL SINGLE POINT ENERGY     -1853.284163984921
FINAL SINGLE POINT ENERGY     -1853.284175653343
FINAL SINGLE POINT ENERGY     -1853.284184833271
FINAL SINGLE POINT ENERGY     -1853.284189666989
FINAL SINGLE POINT ENERGY     -1853.284174121522
FINAL SINGLE POINT ENERGY     -1853.284138956221
Dispersion correction            ... done
Dispersion correction           -0.042069409
FINAL SINGLE POINT ENERGY     -1853.284160834849
Dispersion correction            ... done
Dispersion correction           -0.042066034
FINAL SINGLE POINT ENERGY     -1853.284164163397
Dispersion correction            ... done
                    ***********************HURRAY********************

CARTESIAN COORDINATES (ANGSTROEM)
---------------------------------
  C      4.302457   -0.561982   -0.892431
  O      4.148918   -1.473425   -1.717311
  O      5.162957    0.326591   -0.793381
  C      3.199561   -0.501741    0.243662
  C      2.134245    0.600182    0.004067
  C      0.935690    0.512792    0.896439
  C     -0.439004    1.029756    0.601086
  C     -1.430246   -0.088742    0.123807
  C     -2.941761    0.304207    0.203031
  C     -3.885018   -0.594638   -0.658284
  F      2.516982   -1.683303    0.350683
  F      3.770931   -0.274030    1.465737
  F      2.728302    1.827139    0.140750
  F      1.717496    0.513132   -1.291981
  F      1.099448    0.014297    2.110374
  F     -0.961048    1.583634    1.729009
  F     -0.377831    1.983027   -0.356532
  F     -1.241452   -1.179295    0.898350
  F     -1.115149   -0.411673   -1.146487
  F     -3.104722    1.578747   -0.207131
  F     -3.346078    0.207529    1.483965
  F     -3.657716   -1.886389   -0.406774
  F     -5.152602   -0.313636   -0.347551
  F     -3.706984   -0.365064   -1.958715

 Multiplicity           Mult            ....    2
 Number of Electrons    NEL             ....  191
 Basis Dimension        Dim             ....  744

ORBITAL ENERGIES
----------------
                 SPIN UP ORBITALS
  NO   OCC          E(Eh)            E(eV)
   0   1.0000     -24.747461      -673.4127
   1   1.0000     -24.743882      -673.3153
   2   1.0000     -24.742919      -673.2891
   3   1.0000     -24.742216      -673.2699
   4   1.0000     -24.741520      -673.2510
   5   1.0000     -24.740469      -673.2224
   6   1.0000     -24.740118      -673.2128
   7   1.0000     -24.739456      -673.1948
   8   1.0000     -24.733653      -673.0369
   9   1.0000     -24.732176      -672.9967
  10   1.0000     -24.717210      -672.5895
  11   1.0000     -24.710820      -672.4156
  12   1.0000     -24.696140      -672.0161
  13   1.0000     -24.695873      -672.0089
  14   1.0000     -19.059242      -518.6283
  15   1.0000     -19.058302      -518.6028
  16   1.0000     -10.459708      -284.6231
  17   1.0000     -10.404661      -283.1252
  18   1.0000     -10.401752      -283.0461
  19   1.0000     -10.400470      -283.0112
  20   1.0000     -10.377183      -282.3775
  21   1.0000     -10.340078      -281.3678
  22   1.0000     -10.315830      -280.7080
  23   1.0000     -10.252736      -278.9911
  24   1.0000      -1.352370       -36.7999
  25   1.0000      -1.322925       -35.9986
  26   1.0000      -1.306698       -35.5571
  27   1.0000      -1.301070       -35.4039
  28   1.0000      -1.289054       -35.0769
  29   1.0000      -1.281717       -34.8773
  30   1.0000      -1.264761       -34.4159
  31   1.0000      -1.259378       -34.2694
  32   1.0000      -1.258819       -34.2542
  33   1.0000      -1.255387       -34.1608
  34   1.0000      -1.248199       -33.9652
  35   1.0000      -1.241999       -33.7965
  36   1.0000      -1.223374       -33.2897
  37   1.0000      -1.202066       -32.7099
  38   1.0000      -1.022616       -27.8268
  39   1.0000      -0.939927       -25.5767
  40   1.0000      -0.850172       -23.1344
  41   1.0000      -0.829193       -22.5635
  42   1.0000      -0.792226       -21.5576
  43   1.0000      -0.755204       -20.5502
  44   1.0000      -0.711302       -19.3555
  45   1.0000      -0.688260       -18.7285
  46   1.0000      -0.659625       -17.9493
  47   1.0000      -0.646136       -17.5823
  48   1.0000      -0.642990       -17.4966
  49   1.0000      -0.635949       -17.3050
  50   1.0000      -0.621954       -16.9242
  51   1.0000      -0.617706       -16.8086
  52   1.0000      -0.615425       -16.7466
  53   1.0000      -0.606328       -16.4990
  54   1.0000      -0.602173       -16.3860
  55   1.0000      -0.589562       -16.0428
  56   1.0000      -0.587412       -15.9843
  57   1.0000      -0.577482       -15.7141
  58   1.0000      -0.573111       -15.5951
  59   1.0000      -0.557576       -15.1724
  60   1.0000      -0.548373       -14.9220
  61   1.0000      -0.525635       -14.3033
  62   1.0000      -0.513229       -13.9657
  63   1.0000      -0.507972       -13.8226
  64   1.0000      -0.503108       -13.6903
  65   1.0000      -0.498478       -13.5643
  66   1.0000      -0.495417       -13.4810
  67   1.0000      -0.490113       -13.3366
  68   1.0000      -0.484947       -13.1961
  69   1.0000      -0.479669       -13.0525
  70   1.0000      -0.472771       -12.8648
  71   1.0000      -0.468473       -12.7478
  72   1.0000      -0.462663       -12.5897
  73   1.0000      -0.461625       -12.5615
  74   1.0000      -0.461056       -12.5460
  75   1.0000      -0.455620       -12.3981
  76   1.0000      -0.452583       -12.3154
  77   1.0000      -0.451246       -12.2790
  78   1.0000      -0.447748       -12.1838
  79   1.0000      -0.441829       -12.0228
  80   1.0000      -0.440593       -11.9892
  81   1.0000      -0.439949       -11.9716
  82   1.0000      -0.439343       -11.9551
  83   1.0000      -0.428134       -11.6501
  84   1.0000      -0.426505       -11.6058
  85   1.0000      -0.413636       -11.2556
  86   1.0000      -0.409232       -11.1358
  87   1.0000      -0.406389       -11.0584
  88   1.0000      -0.398050       -10.8315
  89   1.0000      -0.383931       -10.4473
  90   1.0000      -0.370705       -10.0874
  91   1.0000      -0.353220        -9.6116
  92   1.0000      -0.263336        -7.1657
  93   1.0000      -0.248513        -6.7624
  94   1.0000      -0.237042        -6.4502
  95   1.0000      -0.234971        -6.3939
  96   0.0000       0.000435         0.0118
  97   0.0000       0.020979         0.5709
  98   0.0000       0.029334         0.7982
  99   0.0000       0.058810         1.6003
 100   0.0000       0.075467         2.0535

                 SPIN DOWN ORBITALS
  NO   OCC          E(Eh)            E(eV)
   0   1.0000     -24.743885      -673.3153
   1   1.0000     -24.743008      -673.2915
   2   1.0000     -24.742917      -673.2890
   3   1.0000     -24.742185      -673.2691
   4   1.0000     -24.741522      -673.2510
   5   1.0000     -24.740436      -673.2215
   6   1.0000     -24.740108      -673.2126
   7   1.0000     -24.739409      -673.1935
   8   1.0000     -24.733265      -673.0263
   9   1.0000     -24.731463      -672.9773
  10   1.0000     -24.716711      -672.5759
  11   1.0000     -24.709199      -672.3715
  12   1.0000     -24.696058      -672.0139
  13   1.0000     -24.695789      -672.0066
  14   1.0000     -19.059196      -518.6271
  15   1.0000     -19.058286      -518.6023
  16   1.0000     -10.459659      -284.6218
  17   1.0000     -10.404550      -283.1222
  18   1.0000     -10.401358      -283.0353
  19   1.0000     -10.401045      -283.0268
  20   1.0000     -10.377926      -282.3977
  21   1.0000     -10.339944      -281.3642
  22   1.0000     -10.301378      -280.3147
  23   1.0000     -10.252738      -278.9912
  24   1.0000      -1.352328       -36.7987
  25   1.0000      -1.322395       -35.9842
  26   1.0000      -1.306194       -35.5433
  27   1.0000      -1.299295       -35.3556
  28   1.0000      -1.284810       -34.9615
  29   1.0000      -1.275951       -34.7204
  30   1.0000      -1.264689       -34.4139
  31   1.0000      -1.259332       -34.2682
  32   1.0000      -1.258337       -34.2411
  33   1.0000      -1.255136       -34.1540
  34   1.0000      -1.248035       -33.9607
  35   1.0000      -1.240811       -33.7642
  36   1.0000      -1.220855       -33.2212
  37   1.0000      -1.201743       -32.7011
  38   1.0000      -1.022561       -27.8253
  39   1.0000      -0.939859       -25.5749
  40   1.0000      -0.842636       -22.9293
  41   1.0000      -0.819929       -22.3114
  42   1.0000      -0.790205       -21.5026
  43   1.0000      -0.750178       -20.4134
  44   1.0000      -0.707689       -19.2572
  45   1.0000      -0.687155       -18.6984
  46   1.0000      -0.656068       -17.8525
  47   1.0000      -0.644518       -17.5382
  48   1.0000      -0.641596       -17.4587
  49   1.0000      -0.635783       -17.3005
  50   1.0000      -0.620152       -16.8752
  51   1.0000      -0.616339       -16.7714
  52   1.0000      -0.612484       -16.6665
  53   1.0000      -0.604948       -16.4615
  54   1.0000      -0.600500       -16.3404
  55   1.0000      -0.588600       -16.0166
  56   1.0000      -0.583133       -15.8679
  57   1.0000      -0.576763       -15.6945
  58   1.0000      -0.571535       -15.5522
  59   1.0000      -0.555422       -15.1138
  60   1.0000      -0.546054       -14.8589
  61   1.0000      -0.513080       -13.9616
  62   1.0000      -0.508445       -13.8355
  63   1.0000      -0.503774       -13.7084
  64   1.0000      -0.498892       -13.5755
  65   1.0000      -0.496661       -13.5148
  66   1.0000      -0.494891       -13.4667
  67   1.0000      -0.487848       -13.2750
  68   1.0000      -0.483535       -13.1577
  69   1.0000      -0.478658       -13.0249
  70   1.0000      -0.471117       -12.8198
  71   1.0000      -0.467661       -12.7257
  72   1.0000      -0.462538       -12.5863
  73   1.0000      -0.460554       -12.5323
  74   1.0000      -0.458358       -12.4726
  75   1.0000      -0.453469       -12.3395
  76   1.0000      -0.451244       -12.2790
  77   1.0000      -0.450542       -12.2599
  78   1.0000      -0.447306       -12.1718
  79   1.0000      -0.441239       -12.0067
  80   1.0000      -0.439739       -11.9659
  81   1.0000      -0.438643       -11.9361
  82   1.0000      -0.437903       -11.9160
  83   1.0000      -0.426819       -11.6143
  84   1.0000      -0.424217       -11.5435
  85   1.0000      -0.412458       -11.2235
  86   1.0000      -0.408847       -11.1253
  87   1.0000      -0.404203       -10.9989
  88   1.0000      -0.397939       -10.8285
  89   1.0000      -0.383809       -10.4440
  90   1.0000      -0.368535       -10.0284
  91   1.0000      -0.350763        -9.5447
  92   1.0000      -0.248508        -6.7623
  93   1.0000      -0.237206        -6.4547
  94   1.0000      -0.234945        -6.3932
  95   0.0000      -0.118870        -3.2346
  96   0.0000       0.002652         0.0722
  97   0.0000       0.026003         0.7076
  98   0.0000       0.030822         0.8387
  99   0.0000       0.061663         1.6779

MULLIKEN ATOMIC CHARGES AND SPIN POPULATIONS
--------------------------------------------
   0 C :    0.141712   -0.000402
   1 O :   -0.478435    0.001578
   2 O :   -0.485739    0.000626
   3 C :    0.363913   -0.001583
   4 C :    0.337112    0.000163
   5 C :    0.120828    0.832614
   6 C :    0.384304   -0.017316
   7 C :    0.296168    0.029322
   8 C :    0.325011    0.004399
   9 C :    0.476643    0.002068
  10 F :   -0.218483    0.001152
  11 F :   -0.219787    0.001671
  12 F :   -0.196855    0.029577
  13 F :   -0.199121    0.008742
  14 F :   -0.149641    0.085394
  15 F :   -0.179146    0.013102
  16 F :   -0.174138    0.006762
  17 F :   -0.175278    0.000661
  18 F :   -0.173599    0.000681
  19 F :   -0.167382   -0.000049
  20 F :   -0.165075    0.000224
  21 F :   -0.155896   -0.000024
  22 F :   -0.153968    0.000595
  23 F :   -0.153149    0.000039
Sum of atomic charges         :   -1.0000000

LOEWDIN ATOMIC CHARGES AND SPIN POPULATIONS
-------------------------------------------
   0 C :   -0.691495    0.000243
   1 O :   -0.054786    0.001520
   2 O :   -0.057664    0.000479
   3 C :   -0.429090    0.003893
   4 C :   -0.468331    0.056704
   5 C :   -0.165040    0.655641
   6 C :   -0.474114    0.065617
   7 C :   -0.452390    0.023729
   8 C :   -0.462680    0.005363
   9 C :   -0.663788    0.001512
  10 F :    0.159161    0.001921
  11 F :    0.155569    0.002066
  12 F :    0.176297    0.034387
  13 F :    0.192312    0.011392
  14 F :    0.257522    0.110511
  15 F :    0.203252    0.014026
  16 F :    0.214524    0.007713
  17 F :    0.219788    0.001356
  18 F :    0.223284    0.000946
  19 F :    0.221002   -0.000031
  20 F :    0.221715    0.000292
  21 F :    0.224314   -0.000033
  22 F :    0.224031    0.000699
  23 F :    0.226604    0.000054

  Mayer bond orders larger than 0.100000
B(  0-C ,  1-O ) :   1.8976 B(  0-C ,  2-O ) :   1.8833 B(  0-C ,  3-C ) :   0.8355
B(  3-C ,  4-C ) :   0.9113 B(  3-C , 10-F ) :   1.0377 B(  3-C , 11-F ) :   1.0227
B(  4-C ,  5-C ) :   1.0101 B(  4-C , 12-F ) :   1.0619 B(  4-C , 13-F ) :   1.0430
B(  5-C ,  6-C ) :   1.0433 B(  5-C , 14-F ) :   1.1204 B(  6-C ,  7-C ) :   0.9141
B(  6-C , 15-F ) :   1.0684 B(  6-C , 16-F ) :   1.0917 B(  7-C ,  8-C ) :   0.9159
B(  7-C , 17-F ) :   1.0745 B(  7-C , 18-F ) :   1.0886 B(  8-C ,  9-C ) :   0.9653
B(  8-C , 19-F ) :   1.0867 B(  8-C , 20-F ) :   1.0961 B(  9-C , 21-F ) :   1.1434
B(  9-C , 22-F ) :   1.1465 B(  9-C , 23-F ) :   1.1546

Dispersion correction           -0.042073110
FINAL SINGLE POINT ENERGY     -1853.284157295169

DIPOLE MOMENT
-------------
                                X             Y             Z
Electronic contribution:    -17.08347       1.75441       3.84503
Nuclear contribution   :      9.04781      -0.82586      -1.89619
                        -----------------------------------------
Total Dipole Moment    :     -8.03566       0.92855       1.94884
                        -----------------------------------------
Magnitude (a.u.)       :      8.32058
Magnitude (Debye)      :     21.14923

Rotational constants in cm-1:     0.018114     0.004326     0.004135
Rotational constants in MHz :   543.055323   129.683753   123.969688

                             ****ORCA TERMINATED NORMALLY****
TOTAL RUN TIME: 0 days 0 hours 50 minutes 9 seconds 580 msec
