                         Program Version 6.0.1  -  RELEASE   -
|  1> !TPSSh def2-TZVP freq d3 TightSCF SlowConv defgrid2
|  2>
|  3> %pal
|  4> nprocs 20
|  5> end
|  6>
|  7> %scf
|  8> MaxIter 1500
|  9> end
| 10>
| 11> %maxcore 8000
| 12>
| 13> !CPCM
| 14> %cpcm smd true
| 15> SMDsolvent "ACETONITRILE"
| 16> end
| 17>
| 18> * xyz -1 2
| 19> 6        3.957348000      0.542639000     -1.250478000
| 20> 8        4.443986000     -0.252664000     -2.069155000
| 21> 8        3.879459000      1.784970000     -1.239904000
| 22> 6        3.308008000     -0.122027000      0.031213000
| 23> 6        1.772591000      0.099396000      0.110083000
| 24> 6        0.959022000     -0.863241000      1.037281000
| 25> 6       -0.460066000     -0.425144000      1.275775000
| 26> 6       -1.686356000     -0.759671000      0.487756000
| 27> 6       -2.548277000      0.496505000      0.123186000
| 28> 6       -3.630746000      0.262935000     -0.975639000
| 29> 9        3.533259000     -1.470751000      0.085545000
| 30> 9        3.865154000      0.402091000      1.170529000
| 31> 9        1.516277000      1.360249000      0.544416000
| 32> 9        1.251766000     -0.026983000     -1.141404000
| 33> 9        0.960035000     -2.109215000      0.501797000
| 34> 9        1.587882000     -0.910904000      2.244708000
| 35> 9       -0.645865000      0.405551000      2.293893000
| 36> 9       -2.495213000     -1.602781000      1.201827000
| 37> 9       -1.341696000     -1.394004000     -0.656929000
| 38> 9       -1.726978000      1.474908000     -0.319646000
| 39> 9       -3.176893000      0.931969000      1.235869000
| 40> 9       -4.390684000     -0.797269000     -0.681383000
| 41> 9       -4.416485000      1.343580000     -1.045073000
| 42> 9       -3.065047000      0.073903000     -2.169816000
| 43> *
| 44>
| 45>                          ****END OF INPUT****

CARTESIAN COORDINATES (ANGSTROEM)
---------------------------------
  C      3.957348    0.542639   -1.250478
  O      4.443986   -0.252664   -2.069155
  O      3.879459    1.784970   -1.239904
  C      3.308008   -0.122027    0.031213
  C      1.772591    0.099396    0.110083
  C      0.959022   -0.863241    1.037281
  C     -0.460066   -0.425144    1.275775
  C     -1.686356   -0.759671    0.487756
  C     -2.548277    0.496505    0.123186
  C     -3.630746    0.262935   -0.975639
  F      3.533259   -1.470751    0.085545
  F      3.865154    0.402091    1.170529
  F      1.516277    1.360249    0.544416
  F      1.251766   -0.026983   -1.141404
  F      0.960035   -2.109215    0.501797
  F      1.587882   -0.910904    2.244708
  F     -0.645865    0.405551    2.293893
  F     -2.495213   -1.602781    1.201827
  F     -1.341696   -1.394004   -0.656929
  F     -1.726978    1.474908   -0.319646
  F     -3.176893    0.931969    1.235869
  F     -4.390684   -0.797269   -0.681383
  F     -4.416485    1.343580   -1.045073
  F     -3.065047    0.073903   -2.169816

 Total Charge           Charge          ....   -1
 Multiplicity           Mult            ....    2
 Number of Electrons    NEL             ....  191
 Basis Dimension        Dim             ....  744

ORBITAL ENERGIES
----------------
                 SPIN UP ORBITALS
  NO   OCC          E(Eh)            E(eV)
   0   1.0000     -24.668377      -671.2607
   1   1.0000     -24.658741      -670.9984
   2   1.0000     -24.658101      -670.9810
   3   1.0000     -24.657242      -670.9577
   4   1.0000     -24.656570      -670.9394
   5   1.0000     -24.655771      -670.9176
   6   1.0000     -24.654114      -670.8726
   7   1.0000     -24.645139      -670.6283
   8   1.0000     -24.642958      -670.5690
   9   1.0000     -24.642793      -670.5645
  10   1.0000     -24.637625      -670.4239
  11   1.0000     -24.636574      -670.3953
  12   1.0000     -24.612914      -669.7514
  13   1.0000     -24.612389      -669.7371
  14   1.0000     -18.988678      -516.7082
  15   1.0000     -18.986612      -516.6520
  16   1.0000     -10.393373      -282.8180
  17   1.0000     -10.339928      -281.3638
  18   1.0000     -10.338288      -281.3191
  19   1.0000     -10.330108      -281.0965
  20   1.0000     -10.312404      -280.6148
  21   1.0000     -10.278252      -279.6854
  22   1.0000     -10.261028      -279.2168
  23   1.0000     -10.189425      -277.2683
  24   1.0000      -1.319597       -35.9081
  25   1.0000      -1.285478       -34.9796
  26   1.0000      -1.275657       -34.7124
  27   1.0000      -1.268827       -34.5265
  28   1.0000      -1.260278       -34.2939
  29   1.0000      -1.253959       -34.1219
  30   1.0000      -1.233708       -33.5709
  31   1.0000      -1.230155       -33.4742
  32   1.0000      -1.228875       -33.4394
  33   1.0000      -1.222128       -33.2558
  34   1.0000      -1.212954       -33.0062
  35   1.0000      -1.211048       -32.9543
  36   1.0000      -1.200499       -32.6672
  37   1.0000      -1.174055       -31.9477
  38   1.0000      -0.996775       -27.1236
  39   1.0000      -0.915639       -24.9158
  40   1.0000      -0.830155       -22.5897
  41   1.0000      -0.798204       -21.7202
  42   1.0000      -0.768309       -20.9068
  43   1.0000      -0.730168       -19.8689
  44   1.0000      -0.684646       -18.6302
  45   1.0000      -0.658748       -17.9254
  46   1.0000      -0.634823       -17.2744
  47   1.0000      -0.617051       -16.7908
  48   1.0000      -0.610438       -16.6109
  49   1.0000      -0.606416       -16.5014
  50   1.0000      -0.591133       -16.0856
  51   1.0000      -0.588117       -16.0035
  52   1.0000      -0.585420       -15.9301
  53   1.0000      -0.577657       -15.7188
  54   1.0000      -0.576339       -15.6830
  55   1.0000      -0.563814       -15.3422
  56   1.0000      -0.555938       -15.1278
  57   1.0000      -0.546856       -14.8807
  58   1.0000      -0.544659       -14.8209
  59   1.0000      -0.537216       -14.6184
  60   1.0000      -0.519972       -14.1492
  61   1.0000      -0.502406       -13.6712
  62   1.0000      -0.479302       -13.0425
  63   1.0000      -0.475373       -12.9356
  64   1.0000      -0.469952       -12.7880
  65   1.0000      -0.464239       -12.6326
  66   1.0000      -0.459516       -12.5041
  67   1.0000      -0.455132       -12.3848
  68   1.0000      -0.451256       -12.2793
  69   1.0000      -0.448963       -12.2169
  70   1.0000      -0.443842       -12.0775
  71   1.0000      -0.443246       -12.0613
  72   1.0000      -0.435775       -11.8580
  73   1.0000      -0.432760       -11.7760
  74   1.0000      -0.431930       -11.7534
  75   1.0000      -0.429091       -11.6762
  76   1.0000      -0.425225       -11.5710
  77   1.0000      -0.419796       -11.4232
  78   1.0000      -0.416610       -11.3365
  79   1.0000      -0.412572       -11.2267
  80   1.0000      -0.412027       -11.2118
  81   1.0000      -0.409247       -11.1362
  82   1.0000      -0.403909       -10.9909
  83   1.0000      -0.400839       -10.9074
  84   1.0000      -0.398421       -10.8416
  85   1.0000      -0.389439       -10.5972
  86   1.0000      -0.381351       -10.3771
  87   1.0000      -0.375739       -10.2244
  88   1.0000      -0.373129       -10.1533
  89   1.0000      -0.362745        -9.8708
  90   1.0000      -0.349164        -9.5012
  91   1.0000      -0.327106        -8.9010
  92   1.0000      -0.254547        -6.9266
  93   1.0000      -0.232164        -6.3175
  94   1.0000      -0.216898        -5.9021
  95   1.0000      -0.215368        -5.8605
  96   0.0000      -0.014093        -0.3835
  97   0.0000       0.011125         0.3027
  98   0.0000       0.026640         0.7249
  99   0.0000       0.038359         1.0438
 100   0.0000       0.057673         1.5694

                 SPIN DOWN ORBITALS
  NO   OCC          E(Eh)            E(eV)
   0   1.0000     -24.664047      -671.1429
   1   1.0000     -24.658744      -670.9985
   2   1.0000     -24.658098      -670.9810
   3   1.0000     -24.657188      -670.9562
   4   1.0000     -24.656538      -670.9385
   5   1.0000     -24.655675      -670.9150
   6   1.0000     -24.654002      -670.8695
   7   1.0000     -24.643725      -670.5899
   8   1.0000     -24.642528      -670.5573
   9   1.0000     -24.642359      -670.5527
  10   1.0000     -24.637613      -670.4235
  11   1.0000     -24.636564      -670.3950
  12   1.0000     -24.612889      -669.7508
  13   1.0000     -24.612395      -669.7373
  14   1.0000     -18.988513      -516.7037
  15   1.0000     -18.986579      -516.6511
  16   1.0000     -10.393312      -282.8164
  17   1.0000     -10.340782      -281.3870
  18   1.0000     -10.337860      -281.3075
  19   1.0000     -10.331097      -281.1234
  20   1.0000     -10.311707      -280.5958
  21   1.0000     -10.278077      -279.6807
  22   1.0000     -10.245372      -278.7907
  23   1.0000     -10.189390      -277.2674
  24   1.0000      -1.319517       -35.9059
  25   1.0000      -1.284303       -34.9477
  26   1.0000      -1.274241       -34.6739
  27   1.0000      -1.268032       -34.5049
  28   1.0000      -1.256205       -34.1831
  29   1.0000      -1.250536       -34.0288
  30   1.0000      -1.233594       -33.5678
  31   1.0000      -1.230094       -33.4726
  32   1.0000      -1.228800       -33.4374
  33   1.0000      -1.221803       -33.2470
  34   1.0000      -1.211469       -32.9657
  35   1.0000      -1.209906       -32.9232
  36   1.0000      -1.200201       -32.6591
  37   1.0000      -1.174033       -31.9471
  38   1.0000      -0.996597       -27.1188
  39   1.0000      -0.915433       -24.9102
  40   1.0000      -0.818596       -22.2751
  41   1.0000      -0.794733       -21.6258
  42   1.0000      -0.762646       -20.7527
  43   1.0000      -0.728672       -19.8282
  44   1.0000      -0.680298       -18.5119
  45   1.0000      -0.655863       -17.8469
  46   1.0000      -0.631816       -17.1926
  47   1.0000      -0.615968       -16.7613
  48   1.0000      -0.608813       -16.5666
  49   1.0000      -0.605982       -16.4896
  50   1.0000      -0.589142       -16.0314
  51   1.0000      -0.585555       -15.9337
  52   1.0000      -0.581374       -15.8200
  53   1.0000      -0.576790       -15.6953
  54   1.0000      -0.575442       -15.6586
  55   1.0000      -0.562487       -15.3061
  56   1.0000      -0.554317       -15.0837
  57   1.0000      -0.544837       -14.8258
  58   1.0000      -0.543673       -14.7941
  59   1.0000      -0.536183       -14.5903
  60   1.0000      -0.519858       -14.1460
  61   1.0000      -0.483752       -13.1636
  62   1.0000      -0.475369       -12.9355
  63   1.0000      -0.471396       -12.8273
  64   1.0000      -0.468298       -12.7430
  65   1.0000      -0.463177       -12.6037
  66   1.0000      -0.457539       -12.4503
  67   1.0000      -0.454656       -12.3718
  68   1.0000      -0.450549       -12.2601
  69   1.0000      -0.446472       -12.1491
  70   1.0000      -0.443181       -12.0596
  71   1.0000      -0.442361       -12.0372
  72   1.0000      -0.434671       -11.8280
  73   1.0000      -0.432268       -11.7626
  74   1.0000      -0.431361       -11.7379
  75   1.0000      -0.426128       -11.5955
  76   1.0000      -0.424437       -11.5495
  77   1.0000      -0.419632       -11.4188
  78   1.0000      -0.415867       -11.3163
  79   1.0000      -0.411933       -11.2093
  80   1.0000      -0.411051       -11.1853
  81   1.0000      -0.408793       -11.1238
  82   1.0000      -0.403507       -10.9800
  83   1.0000      -0.400509       -10.8984
  84   1.0000      -0.397552       -10.8179
  85   1.0000      -0.388756       -10.5786
  86   1.0000      -0.381228       -10.3737
  87   1.0000      -0.375011       -10.2046
  88   1.0000      -0.372141       -10.1265
  89   1.0000      -0.362569        -9.8660
  90   1.0000      -0.346699        -9.4342
  91   1.0000      -0.325199        -8.8491
  92   1.0000      -0.232062        -6.3147
  93   1.0000      -0.217438        -5.9168
  94   1.0000      -0.215430        -5.8622
  95   0.0000      -0.130028        -3.5382
  96   0.0000      -0.008988        -0.2446
  97   0.0000       0.013008         0.3540
  98   0.0000       0.031347         0.8530
  99   0.0000       0.040163         1.0929

MULLIKEN ATOMIC CHARGES AND SPIN POPULATIONS
--------------------------------------------
   0 C :    0.171486    0.001654
   1 O :   -0.478462    0.005778
   2 O :   -0.492382    0.001192
   3 C :    0.300632    0.006057
   4 C :    0.266968    0.029827
   5 C :    0.346421   -0.032685
   6 C :    0.118581    0.858143
   7 C :    0.298999   -0.005103
   8 C :    0.298963    0.006626
   9 C :    0.409138    0.002448
  10 F :   -0.196091   -0.000111
  11 F :   -0.202674    0.000615
  12 F :   -0.175021   -0.000657
  13 F :   -0.182446   -0.000401
  14 F :   -0.158854    0.006677
  15 F :   -0.164301    0.007481
  16 F :   -0.131863    0.082143
  17 F :   -0.162950    0.026539
  18 F :   -0.157778    0.000794
  19 F :   -0.152837    0.000068
  20 F :   -0.149135    0.001892
  21 F :   -0.136847   -0.000078
  22 F :   -0.135207    0.001036
  23 F :   -0.134343    0.000062
Sum of atomic charges         :   -1.0000000

LOEWDIN ATOMIC CHARGES AND SPIN POPULATIONS
-------------------------------------------
   0 C :   -0.690613    0.002171
   1 O :   -0.047322    0.005183
   2 O :   -0.054142    0.001099
   3 C :   -0.439195    0.006850
   4 C :   -0.451003    0.023503
   5 C :   -0.480750    0.058590
   6 C :   -0.161773    0.659638
   7 C :   -0.478072    0.065653
   8 C :   -0.460449    0.013054
   9 C :   -0.667334    0.002305
  10 F :    0.162939   -0.000098
  11 F :    0.153682    0.000679
  12 F :    0.205091    0.000681
  13 F :    0.201236    0.000635
  14 F :    0.209528    0.008589
  15 F :    0.203518    0.008466
  16 F :    0.259137    0.105981
  17 F :    0.192307    0.029199
  18 F :    0.223090    0.002972
  19 F :    0.222498    0.001156
  20 F :    0.221624    0.002397
  21 F :    0.225010   -0.000022
  22 F :    0.223742    0.001212
  23 F :    0.227250    0.000109

  Mayer bond orders larger than 0.100000
B(  0-C ,  1-O ) :   1.8702 B(  0-C ,  2-O ) :   1.8468 B(  0-C ,  3-C ) :   0.8536
B(  3-C ,  4-C ) :   0.9288 B(  3-C , 10-F ) :   1.0580 B(  3-C , 11-F ) :   1.0428
B(  4-C ,  5-C ) :   0.9291 B(  4-C , 12-F ) :   1.0593 B(  4-C , 13-F ) :   1.0512
B(  5-C ,  6-C ) :   1.0240 B(  5-C , 14-F ) :   1.1027 B(  5-C , 15-F ) :   1.0795
B(  6-C ,  7-C ) :   1.0544 B(  6-C , 16-F ) :   1.1302 B(  7-C ,  8-C ) :   0.9279
B(  7-C , 17-F ) :   1.0752 B(  7-C , 18-F ) :   1.0867 B(  8-C ,  9-C ) :   0.9637
B(  8-C , 19-F ) :   1.0924 B(  8-C , 20-F ) :   1.1015 B(  9-C , 21-F ) :   1.1596
B(  9-C , 22-F ) :   1.1599 B(  9-C , 23-F ) :   1.1696

Dispersion correction           -0.029380768
FINAL SINGLE POINT ENERGY     -1853.955235639846

DIPOLE MOMENT
-------------

Method             : SCF
Type of density    : Electron Density
Multiplicity       :   2
Irrep              :   0
Energy             : -1853.9258548715167763 Eh
Relativity type    :
Basis              : AO
                                X                 Y                 Z
Electronic contribution:    -14.910263119      -2.384805005       4.932809864
Nuclear contribution   :      7.741488983       1.226519806      -2.444401860
                        -----------------------------------------
Total Dipole Moment    :     -7.168774136      -1.158285198       2.488408005
                        -----------------------------------------
Magnitude (a.u.)       :      7.676270032
Magnitude (Debye)      :     19.511527815

VIBRATIONAL FREQUENCIES
-----------------------

Scaling factor for frequencies =  1.000000000  (already applied!)

     0:       0.00 cm**-1
     1:       0.00 cm**-1
     2:       0.00 cm**-1
     3:       0.00 cm**-1
     4:       0.00 cm**-1
     5:       0.00 cm**-1
     6:      18.22 cm**-1
     7:      23.30 cm**-1
     8:      26.46 cm**-1
     9:      39.27 cm**-1
    10:      47.07 cm**-1
    11:      54.24 cm**-1
    12:      58.53 cm**-1
    13:      79.35 cm**-1
    14:      99.90 cm**-1
    15:     118.12 cm**-1
    16:     163.30 cm**-1
    17:     167.73 cm**-1
    18:     185.88 cm**-1
    19:     195.17 cm**-1
    20:     204.73 cm**-1
    21:     215.85 cm**-1
    22:     230.15 cm**-1
    23:     233.34 cm**-1
    24:     247.43 cm**-1
    25:     272.22 cm**-1
    26:     278.32 cm**-1
    27:     305.03 cm**-1
    28:     322.37 cm**-1
    29:     332.26 cm**-1
    30:     345.79 cm**-1
    31:     353.07 cm**-1
    32:     359.73 cm**-1
    33:     363.07 cm**-1
    34:     384.68 cm**-1
    35:     418.23 cm**-1
    36:     453.28 cm**-1
    37:     494.34 cm**-1
    38:     517.46 cm**-1
    39:     526.00 cm**-1
    40:     539.21 cm**-1
    41:     559.50 cm**-1
    42:     578.45 cm**-1
    43:     594.91 cm**-1
    44:     608.22 cm**-1
    45:     657.30 cm**-1
    46:     676.93 cm**-1
    47:     685.16 cm**-1
    48:     716.78 cm**-1
    49:     769.47 cm**-1
    50:     781.11 cm**-1
    51:     848.15 cm**-1
    52:     981.65 cm**-1
    53:    1033.18 cm**-1
    54:    1067.52 cm**-1
    55:    1072.67 cm**-1
    56:    1094.65 cm**-1
    57:    1101.78 cm**-1
    58:    1107.14 cm**-1
    59:    1123.53 cm**-1
    60:    1138.72 cm**-1
    61:    1143.18 cm**-1
    62:    1151.14 cm**-1
    63:    1171.11 cm**-1
    64:    1204.40 cm**-1
    65:    1218.02 cm**-1
    66:    1225.22 cm**-1
    67:    1288.20 cm**-1
    68:    1322.10 cm**-1
    69:    1343.24 cm**-1
    70:    1378.99 cm**-1
    71:    1723.20 cm**-1

IR SPECTRUM
-----------

 Mode   freq       eps      Int      T**2         TX        TY        TZ
       cm**-1   L/(mol*cm) km/mol    a.u.
----------------------------------------------------------------------------
  6:     18.22   0.000417    2.11  0.007142  (-0.041083 -0.052503 -0.051941)
  7:     23.30   0.000531    2.68  0.007108  (-0.058730  0.058201 -0.016484)
  8:     26.46   0.000308    1.56  0.003634  ( 0.049999 -0.006250  0.033091)
  9:     39.27   0.000138    0.70  0.001094  (-0.026638  0.008447 -0.017694)
 10:     47.07   0.000376    1.90  0.002490  ( 0.019316  0.036120  0.028498)
 11:     54.24   0.000002    0.01  0.000009  (-0.002408 -0.001223  0.001185)
 12:     58.53   0.000066    0.34  0.000354  ( 0.013980  0.005095  0.011499)
 13:     79.35   0.000583    2.95  0.002294  ( 0.043778 -0.018781  0.004947)
 14:     99.90   0.000469    2.37  0.001464  (-0.031611 -0.013384 -0.016891)
 15:    118.12   0.000342    1.73  0.000902  (-0.024742  0.017034  0.000123)
 16:    163.30   0.000673    3.40  0.001287  (-0.033095 -0.011554 -0.007611)
 17:    167.73   0.000368    1.86  0.000684  ( 0.018955  0.006819 -0.016675)
 18:    185.88   0.001208    6.11  0.002028  ( 0.022681 -0.007531 -0.038172)
 19:    195.17   0.001595    8.06  0.002551  ( 0.038002  0.019467 -0.026971)
 20:    204.73   0.000371    1.87  0.000565  ( 0.009971  0.014984  0.015529)
 21:    215.85   0.000199    1.01  0.000288  ( 0.005878  0.006262  0.014630)
 22:    230.15   0.000102    0.52  0.000139  ( 0.004627 -0.005195 -0.009500)
 23:    233.34   0.000009    0.04  0.000012  ( 0.001915  0.002429 -0.001502)
 24:    247.43   0.000140    0.71  0.000177  ( 0.003833  0.004145  0.012040)
 25:    272.22   0.001061    5.36  0.001216  (-0.029577  0.009289 -0.015963)
 26:    278.32   0.000420    2.12  0.000471  (-0.010684  0.018875  0.000858)
 27:    305.03   0.000068    0.34  0.000069  (-0.003154  0.007362 -0.002281)
 28:    322.37   0.000383    1.94  0.000371  (-0.018509  0.001286 -0.005196)
 29:    332.26   0.000205    1.04  0.000193  ( 0.013778 -0.000457  0.001588)
 30:    345.79   0.000207    1.04  0.000187  ( 0.004631 -0.002309 -0.012641)
 31:    353.07   0.000369    1.86  0.000326  ( 0.017293  0.004610  0.002367)
 32:    359.73   0.000231    1.17  0.000201  ( 0.013567  0.003778 -0.001511)
 33:    363.07   0.000261    1.32  0.000224  (-0.014469 -0.000054  0.003889)
 34:    384.68   0.000249    1.26  0.000202  ( 0.011996  0.005781  0.005006)
 35:    418.23   0.000103    0.52  0.000077  (-0.001551  0.004268  0.007476)
 36:    453.28   0.000532    2.69  0.000366  ( 0.015711 -0.009908  0.004621)
 37:    494.34   0.000664    3.36  0.000419  (-0.007575 -0.017957  0.006279)
 38:    517.46   0.006660   33.66  0.004016  ( 0.054602 -0.031843  0.004575)
 39:    526.00   0.005425   27.42  0.003219  (-0.054383 -0.006387 -0.014849)
 40:    539.21   0.003630   18.34  0.002101  ( 0.043181 -0.010978  0.010755)
 41:    559.50   0.002952   14.92  0.001646  (-0.019147 -0.018155  0.030823)
 42:    578.45   0.004366   22.06  0.002355  (-0.039966 -0.023271 -0.014717)
 43:    594.91   0.000336    1.70  0.000176  ( 0.012477 -0.001307  0.004350)
 44:    608.22   0.004767   24.09  0.002446  ( 0.041987  0.025923  0.003319)
 45:    657.30   0.027465  138.80  0.013039  (-0.111039 -0.014173  0.022561)
 46:    676.93   0.009253   46.76  0.004265  ( 0.058815 -0.006426  0.027657)
 47:    685.16   0.005400   27.29  0.002460  ( 0.035128  0.014729 -0.031760)
 48:    716.78   0.016457   83.17  0.007165  (-0.044169  0.035693 -0.062771)
 49:    769.47   0.003942   19.92  0.001599  (-0.033199  0.018761 -0.012017)
 50:    781.11   0.021376  108.03  0.008540  (-0.032113 -0.033482  0.079924)
 51:    848.15   0.013327   67.35  0.004903  (-0.026791  0.035820 -0.053875)
 52:    981.65   0.018827   95.15  0.005985  ( 0.007612 -0.052068  0.056711)
 53:   1033.18   0.024047  121.52  0.007263  (-0.080564 -0.026638 -0.007941)
 54:   1067.52   0.052239  263.99  0.015271  (-0.065441 -0.102376  0.022522)
 55:   1072.67   0.038304  193.57  0.011144  (-0.015076 -0.074732 -0.073016)
 56:   1094.65   0.020141  101.78  0.005742  (-0.053093  0.038543 -0.037913)
 57:   1101.78   0.054893  277.40  0.015548  (-0.055994  0.041013 -0.103587)
 58:   1107.14   0.060209  304.27  0.016971  (-0.024940 -0.082809 -0.097425)
 59:   1123.53   0.003648   18.44  0.001013  ( 0.023435 -0.021543  0.000209)
 60:   1138.72   0.067865  342.96  0.018598  ( 0.043446  0.124273  0.035595)
 61:   1143.18   0.083654  422.75  0.022836  ( 0.074081  0.004944 -0.131618)
 62:   1151.14   0.114498  578.63  0.031039  (-0.052274  0.160468  0.050565)
 63:   1171.11   0.082795  418.41  0.022062  ( 0.093813  0.023930 -0.112645)
 64:   1204.40   0.001321    6.67  0.000342  ( 0.010287 -0.007720  0.013296)
 65:   1218.02   0.020036  101.26  0.005133  (-0.006431  0.070178  0.012929)
 66:   1225.22   0.007276   36.77  0.001853  (-0.006567  0.019069  0.038032)
 67:   1288.20   0.028349  143.26  0.006867  (-0.037120  0.017787 -0.071925)
 68:   1322.10   0.022893  115.69  0.005404  ( 0.027288 -0.012449  0.067111)
 69:   1343.24   0.071759  362.64  0.016671  ( 0.103622  0.034166 -0.069039)
 70:   1378.99   0.002218   11.21  0.000502  ( 0.008786 -0.017924 -0.010170)
 71:   1723.20   0.154501  780.78  0.027979  (-0.040062  0.150412  0.061242)

--------------------------
THERMOCHEMISTRY AT 298.15K
--------------------------

Temperature         ...   298.15 K
Pressure            ...     1.00 atm
Total Mass          ...   394.06 AMU
Quasi RRHO          ...     True
Cut-Off Frequency   ...     1.00 cm^-1

Throughout the following assumptions are being made:
  (1) The electronic state is orbitally nondegenerate
      but the spin degeneracy is treated
  (2) There are no thermally accessible electronically excited states
  (3) Hindered rotations indicated by low frequency modes are not
      treated as such but are treated as vibrations and this may
      cause some error
  (4) All equations used are the standard statistical mechanics
      equations for an ideal gas
  (5) All vibrations are strictly harmonic

freq.      18.22  E(vib)   ...       0.57
freq.      23.30  E(vib)   ...       0.56
freq.      26.46  E(vib)   ...       0.56
freq.      39.27  E(vib)   ...       0.54
freq.      47.07  E(vib)   ...       0.53
freq.      54.24  E(vib)   ...       0.52
freq.      58.53  E(vib)   ...       0.51
freq.      79.35  E(vib)   ...       0.49
freq.      99.90  E(vib)   ...       0.46
freq.     118.12  E(vib)   ...       0.44
freq.     163.30  E(vib)   ...       0.39
freq.     167.73  E(vib)   ...       0.38
freq.     185.88  E(vib)   ...       0.37
freq.     195.17  E(vib)   ...       0.36
freq.     204.73  E(vib)   ...       0.35
freq.     215.85  E(vib)   ...       0.34
freq.     230.15  E(vib)   ...       0.32
freq.     233.34  E(vib)   ...       0.32
freq.     247.43  E(vib)   ...       0.31
freq.     272.22  E(vib)   ...       0.29
freq.     278.32  E(vib)   ...       0.28
freq.     305.03  E(vib)   ...       0.26
freq.     322.37  E(vib)   ...       0.25
freq.     332.26  E(vib)   ...       0.24
freq.     345.79  E(vib)   ...       0.23
freq.     353.07  E(vib)   ...       0.22
freq.     359.73  E(vib)   ...       0.22
freq.     363.07  E(vib)   ...       0.22
freq.     384.68  E(vib)   ...       0.20
freq.     418.23  E(vib)   ...       0.18
freq.     453.28  E(vib)   ...       0.16
freq.     494.34  E(vib)   ...       0.14
freq.     517.46  E(vib)   ...       0.13
freq.     526.00  E(vib)   ...       0.13
freq.     539.21  E(vib)   ...       0.12
freq.     559.50  E(vib)   ...       0.12
freq.     578.45  E(vib)   ...       0.11
freq.     594.91  E(vib)   ...       0.10
freq.     608.22  E(vib)   ...       0.10
freq.     657.30  E(vib)   ...       0.08
freq.     676.93  E(vib)   ...       0.08
freq.     685.16  E(vib)   ...       0.07
freq.     716.78  E(vib)   ...       0.07
freq.     769.47  E(vib)   ...       0.06
freq.     781.11  E(vib)   ...       0.05
freq.     848.15  E(vib)   ...       0.04
freq.     981.65  E(vib)   ...       0.02
freq.    1033.18  E(vib)   ...       0.02
freq.    1067.52  E(vib)   ...       0.02
freq.    1072.67  E(vib)   ...       0.02
freq.    1094.65  E(vib)   ...       0.02
freq.    1101.78  E(vib)   ...       0.02
freq.    1107.14  E(vib)   ...       0.02
freq.    1123.53  E(vib)   ...       0.01
freq.    1138.72  E(vib)   ...       0.01
freq.    1143.18  E(vib)   ...       0.01
freq.    1151.14  E(vib)   ...       0.01
freq.    1171.11  E(vib)   ...       0.01
freq.    1204.40  E(vib)   ...       0.01
freq.    1218.02  E(vib)   ...       0.01
freq.    1225.22  E(vib)   ...       0.01
freq.    1288.20  E(vib)   ...       0.01
freq.    1322.10  E(vib)   ...       0.01
freq.    1343.24  E(vib)   ...       0.01
freq.    1378.99  E(vib)   ...       0.01
freq.    1723.20  E(vib)   ...       0.00

------------
INNER ENERGY
------------

The inner energy is: U= E(el) + E(ZPE) + E(vib) + E(rot) + E(trans)
    E(el)   - is the total energy from the electronic structure calculation
              = E(kin-el) + E(nuc-el) + E(el-el) + E(nuc-nuc)
    E(ZPE)  - the the zero temperature vibrational energy from the frequency calculation
    E(vib)  - the the finite temperature correction to E(ZPE) due to population
              of excited vibrational states
    E(rot)  - is the rotational thermal energy
    E(trans)- is the translational thermal energy

Summary of contributions to the inner energy U:
Electronic energy                ...  -1853.95523564 Eh
Zero point energy                ...      0.09121493 Eh      57.24 kcal/mol
Thermal vibrational correction   ...      0.02024208 Eh      12.70 kcal/mol
Thermal rotational correction    ...      0.00141627 Eh       0.89 kcal/mol
Thermal translational correction ...      0.00141627 Eh       0.89 kcal/mol
-----------------------------------------------------------------------
Total thermal energy                  -1853.84094609 Eh

Summary of corrections to the electronic energy:
(perhaps to be used in another calculation)
Total thermal correction                  0.02307462 Eh      14.48 kcal/mol
Non-thermal (ZPE) correction              0.09121493 Eh      57.24 kcal/mol
-----------------------------------------------------------------------
Total correction                          0.11428955 Eh      71.72 kcal/mol

--------
ENTHALPY
--------

The enthalpy is H = U + kB*T
                kB is Boltzmann's constant
Total thermal energy              ...  -1853.84094609 Eh
Thermal Enthalpy correction       ...      0.00094421 Eh       0.59 kcal/mol
-----------------------------------------------------------------------
Total Enthalpy                    ...  -1853.84000188 Eh

Note: Only C1 symmetry has been detected, increase convergence thresholds
      if your molecule has a higher symmetry. Symmetry factor of 1.0 is
      used for the rotational entropy correction.

Note: Rotational entropy computed according to Herzberg
Infrared and Raman Spectra, Chapter V,1, Van Nostrand Reinhold, 1945
Point Group:  C1, Symmetry Number:   1
Rotational constants in cm-1:     0.016099     0.004709     0.004396

Vibrational entropy computed according to the QRRHO of S. Grimme
Chem.Eur.J. 2012 18 9955 using a reference frequency of 100.0 cm-1

-------
ENTROPY
-------

The entropy contributions are T*S = T*(S(el)+S(vib)+S(rot)+S(trans))
     S(el)   - electronic entropy
     S(vib)  - vibrational entropy
     S(rot)  - rotational entropy
     S(trans)- translational entropy
The entropies will be listed as multiplied by the temperature to get
units of energy

Electronic entropy                ...      0.00065446 Eh      0.41 kcal/mol
Vibrational entropy               ...      0.03690825 Eh     23.16 kcal/mol
Rotational entropy                ...      0.01655171 Eh     10.39 kcal/mol
Translational entropy             ...      0.02081341 Eh     13.06 kcal/mol
-----------------------------------------------------------------------

                             ****ORCA TERMINATED NORMALLY****
TOTAL RUN TIME: 0 days 0 hours 24 minutes 10 seconds 97 msec
