                         Program Version 6.0.1  -  RELEASE   -
|  1> !TPSSh def2-TZVP freq d3 TightSCF SlowConv defgrid2
|  2>
|  3> %pal
|  4> nprocs 20
|  5> end
|  6>
|  7> %scf
|  8> MaxIter 1500
|  9> end
| 10>
| 11> %maxcore 8000
| 12>
| 13> !CPCM
| 14> %cpcm smd true
| 15> SMDsolvent "ACETONITRILE"
| 16> end
| 17>
| 18> * xyz -1 1
| 19> 6        6.897484000     27.977234000      2.960231000
| 20> 6        6.129566000     26.706462000      2.473279000
| 21> 6        7.052502000     25.496374000      2.107192000
| 22> 6        6.293324000     24.125172000      2.067052000
| 23> 6        7.063080000     23.010724000      1.277163000
| 24> 6        6.580481000     21.559390000      1.606022000
| 25> 6        6.996415000     20.471725000      0.575600000
| 26> 6        6.887710000     19.012743000      1.168325000
| 27> 9        7.882455000     28.291566000      2.112457000
| 28> 9        7.414877000     27.786462000      4.175542000
| 29> 9        6.040526000     29.001575000      3.019895000
| 30> 9        5.279129000     26.345586000      3.459045000
| 31> 9        5.412454000     27.051699000      1.385389000
| 32> 9        7.602872000     25.738540000      0.897818000
| 33> 9        8.043117000     25.413391000      3.021254000
| 34> 9        6.098803000     23.717114000      3.339613000
| 35> 9        5.088662000     24.313780000      1.484680000
| 36> 9        6.895490000     23.246796000     -0.043530000
| 37> 9        8.379991000     23.111387000      1.568715000
| 38> 9        7.098690000     21.217807000      2.814590000
| 39> 9        5.230629000     21.580368000      1.716990000
| 40> 9        6.197168000     20.606154000     -0.526829000
| 41> 9        8.269425000     20.758393000      0.170111000
| 42> 8        7.961795000     18.444779000      1.390575000
| 43> 8        5.707348000     18.633533000      1.346085000
| 44> 8        3.190536000     19.276419000      0.431646000
| 45> 1        2.845115000     18.379986000      0.328672000
| 46> 1        4.119111000     19.142161000      0.733035000
| 47> *
| 48>
| 49>                          ****END OF INPUT****

CARTESIAN COORDINATES (ANGSTROEM)
---------------------------------
  C      6.897484   27.977234    2.960231
  C      6.129566   26.706462    2.473279
  C      7.052502   25.496374    2.107192
  C      6.293324   24.125172    2.067052
  C      7.063080   23.010724    1.277163
  C      6.580481   21.559390    1.606022
  C      6.996415   20.471725    0.575600
  C      6.887710   19.012743    1.168325
  F      7.882455   28.291566    2.112457
  F      7.414877   27.786462    4.175542
  F      6.040526   29.001575    3.019895
  F      5.279129   26.345586    3.459045
  F      5.412454   27.051699    1.385389
  F      7.602872   25.738540    0.897818
  F      8.043117   25.413391    3.021254
  F      6.098803   23.717114    3.339613
  F      5.088662   24.313780    1.484680
  F      6.895490   23.246796   -0.043530
  F      8.379991   23.111387    1.568715
  F      7.098690   21.217807    2.814590
  F      5.230629   21.580368    1.716990
  F      6.197168   20.606154   -0.526829
  F      8.269425   20.758393    0.170111
  O      7.961795   18.444779    1.390575
  O      5.707348   18.633533    1.346085
  O      3.190536   19.276419    0.431646
  H      2.845115   18.379986    0.328672
  H      4.119111   19.142161    0.733035

 Total Charge           Charge          ....   -1
 Multiplicity           Mult            ....    1
 Number of Electrons    NEL             ....  210
 Basis Dimension        Dim             ....  818

ORBITAL ENERGIES
----------------

  NO   OCC          E(Eh)            E(eV)
   0   2.0000     -24.660665      -671.0508
   1   2.0000     -24.659532      -671.0200
   2   2.0000     -24.659482      -671.0186
   3   2.0000     -24.659241      -671.0121
   4   2.0000     -24.659170      -671.0101
   5   2.0000     -24.658920      -671.0033
   6   2.0000     -24.658354      -670.9879
   7   2.0000     -24.656690      -670.9426
   8   2.0000     -24.656478      -670.9369
   9   2.0000     -24.651833      -670.8105
  10   2.0000     -24.651161      -670.7922
  11   2.0000     -24.641458      -670.5282
  12   2.0000     -24.641145      -670.5197
  13   2.0000     -24.618154      -669.8940
  14   2.0000     -24.618151      -669.8939
  15   2.0000     -19.012361      -517.3527
  16   2.0000     -19.001206      -517.0491
  17   2.0000     -18.997787      -516.9561
  18   2.0000     -10.395298      -282.8704
  19   2.0000     -10.344004      -281.4747
  20   2.0000     -10.343241      -281.4539
  21   2.0000     -10.340941      -281.3913
  22   2.0000     -10.334436      -281.2143
  23   2.0000     -10.319955      -280.8202
  24   2.0000     -10.285383      -279.8795
  25   2.0000     -10.200458      -277.5686
  26   2.0000      -1.321801       -35.9680
  27   2.0000      -1.299158       -35.3519
  28   2.0000      -1.284583       -34.9553
  29   2.0000      -1.276637       -34.7390
  30   2.0000      -1.273133       -34.6437
  31   2.0000      -1.262669       -34.3590
  32   2.0000      -1.237227       -33.6667
  33   2.0000      -1.236493       -33.6467
  34   2.0000      -1.231191       -33.5024
  35   2.0000      -1.230528       -33.4844
  36   2.0000      -1.224271       -33.3141
  37   2.0000      -1.220895       -33.2222
  38   2.0000      -1.217107       -33.1192
  39   2.0000      -1.206519       -32.8310
  40   2.0000      -1.180352       -32.1190
  41   2.0000      -1.008868       -27.4527
  42   2.0000      -0.947381       -25.7795
  43   2.0000      -0.925974       -25.1970
  44   2.0000      -0.823545       -22.4098
  45   2.0000      -0.802019       -21.8240
  46   2.0000      -0.772754       -21.0277
  47   2.0000      -0.734988       -20.0000
  48   2.0000      -0.692315       -18.8388
  49   2.0000      -0.662471       -18.0268
  50   2.0000      -0.644864       -17.5476
  51   2.0000      -0.622760       -16.9462
  52   2.0000      -0.617987       -16.8163
  53   2.0000      -0.610007       -16.5991
  54   2.0000      -0.601942       -16.3797
  55   2.0000      -0.597672       -16.2635
  56   2.0000      -0.596218       -16.2239
  57   2.0000      -0.583633       -15.8815
  58   2.0000      -0.580529       -15.7970
  59   2.0000      -0.575833       -15.6692
  60   2.0000      -0.568651       -15.4738
  61   2.0000      -0.557187       -15.1618
  62   2.0000      -0.555752       -15.1228
  63   2.0000      -0.550058       -14.9678
  64   2.0000      -0.543140       -14.7796
  65   2.0000      -0.525972       -14.3124
  66   2.0000      -0.486627       -13.2418
  67   2.0000      -0.483106       -13.1460
  68   2.0000      -0.480775       -13.0826
  69   2.0000      -0.477549       -12.9948
  70   2.0000      -0.473772       -12.8920
  71   2.0000      -0.470039       -12.7904
  72   2.0000      -0.466698       -12.6995
  73   2.0000      -0.462751       -12.5921
  74   2.0000      -0.456569       -12.4239
  75   2.0000      -0.452971       -12.3260
  76   2.0000      -0.450583       -12.2610
  77   2.0000      -0.448159       -12.1950
  78   2.0000      -0.441916       -12.0252
  79   2.0000      -0.439813       -11.9679
  80   2.0000      -0.436339       -11.8734
  81   2.0000      -0.433778       -11.8037
  82   2.0000      -0.430085       -11.7032
  83   2.0000      -0.423604       -11.5269
  84   2.0000      -0.422686       -11.5019
  85   2.0000      -0.419873       -11.4253
  86   2.0000      -0.416468       -11.3327
  87   2.0000      -0.415139       -11.2965
  88   2.0000      -0.411686       -11.2025
  89   2.0000      -0.410799       -11.1784
  90   2.0000      -0.407690       -11.0938
  91   2.0000      -0.406000       -11.0478
  92   2.0000      -0.401081       -10.9140
  93   2.0000      -0.393063       -10.6958
  94   2.0000      -0.390144       -10.6164
  95   2.0000      -0.384740       -10.4693
  96   2.0000      -0.377663       -10.2767
  97   2.0000      -0.372817       -10.1449
  98   2.0000      -0.350164        -9.5284
  99   2.0000      -0.331477        -9.0200
 100   2.0000      -0.320463        -8.7202
 101   2.0000      -0.259322        -7.0565
 102   2.0000      -0.242661        -6.6032
 103   2.0000      -0.230732        -6.2785
 104   2.0000      -0.225689        -6.1413
 105   0.0000      -0.021594        -0.5876
 106   0.0000      -0.008173        -0.2224
 107   0.0000       0.010021         0.2727
 108   0.0000       0.036443         0.9917
 109   0.0000       0.041929         1.1410

MULLIKEN ATOMIC CHARGES
-----------------------
   0 C :    0.408718
   1 C :    0.295469
   2 C :    0.271619
   3 C :    0.294451
   4 C :    0.294689
   5 C :    0.270947
   6 C :    0.302399
   7 C :    0.213827
   8 F :   -0.135773
   9 F :   -0.133205
  10 F :   -0.133052
  11 F :   -0.146765
  12 F :   -0.143929
  13 F :   -0.149234
  14 F :   -0.148859
  15 F :   -0.149819
  16 F :   -0.150546
  17 F :   -0.154615
  18 F :   -0.155414
  19 F :   -0.169926
  20 F :   -0.163069
  21 F :   -0.195323
  22 F :   -0.190399
  23 O :   -0.455826
  24 O :   -0.524416
  25 O :   -0.739393
  26 H :    0.330616
  27 H :    0.356832
Sum of atomic charges:   -1.0000000

LOEWDIN ATOMIC CHARGES
----------------------
   0 C :   -0.667947
   1 C :   -0.466447
   2 C :   -0.460538
   3 C :   -0.458856
   4 C :   -0.458231
   5 C :   -0.457457
   6 C :   -0.442636
   7 C :   -0.667218
   8 F :    0.226512
   9 F :    0.228281
  10 F :    0.226548
  11 F :    0.224747
  12 F :    0.226535
  13 F :    0.226396
  14 F :    0.226110
  15 F :    0.225404
  16 F :    0.224094
  17 F :    0.219896
  18 F :    0.219181
  19 F :    0.206819
  20 F :    0.214589
  21 F :    0.164990
  22 F :    0.171236
  23 O :   -0.022856
  24 O :   -0.050991
  25 O :   -0.373148
  26 H :    0.155250
  27 H :    0.139738

  Mayer bond orders larger than 0.100000
B(  0-C ,  1-C ) :   0.9714 B(  0-C ,  8-F ) :   1.1596 B(  0-C ,  9-F ) :   1.1708
B(  0-C , 10-F ) :   1.1623 B(  1-C ,  2-C ) :   0.9444 B(  1-C , 11-F ) :   1.1001
B(  1-C , 12-F ) :   1.1129 B(  2-C ,  3-C ) :   0.9487 B(  2-C , 13-F ) :   1.0969
B(  2-C , 14-F ) :   1.1018 B(  3-C ,  4-C ) :   0.9560 B(  3-C , 15-F ) :   1.0947
B(  3-C , 16-F ) :   1.0931 B(  4-C ,  5-C ) :   0.9437 B(  4-C , 17-F ) :   1.0941
B(  4-C , 18-F ) :   1.0854 B(  5-C ,  6-C ) :   0.9307 B(  5-C , 19-F ) :   1.0734
B(  5-C , 20-F ) :   1.0850 B(  6-C ,  7-C ) :   0.8788 B(  6-C , 21-F ) :   1.0446
B(  6-C , 22-F ) :   1.0620 B(  7-C , 23-O ) :   1.9139 B(  7-C , 24-O ) :   1.6749
B( 24-O , 27-H ) :   0.1114 B( 25-O , 26-H ) :   0.8991 B( 25-O , 27-H ) :   0.8133

Dispersion correction           -0.032859110
FINAL SINGLE POINT ENERGY     -2030.366682730595

DIPOLE MOMENT
-------------

Method             : SCF
Type of density    : Electron Density
Multiplicity       :   1
Irrep              :   0
Energy             : -2030.3338236210645391 Eh
Relativity type    :
Basis              : AO
                                X                 Y                 Z
Electronic contribution:      8.229966131      29.588444159       5.391084909
Nuclear contribution   :     -7.779320947     -21.785954415      -4.168812595
                        -----------------------------------------
Total Dipole Moment    :      0.450645184       7.802489744       1.222272314
                        -----------------------------------------
Magnitude (a.u.)       :      7.910491571
Magnitude (Debye)      :     20.106871653

VIBRATIONAL FREQUENCIES
-----------------------

Scaling factor for frequencies =  1.000000000  (already applied!)

     0:       0.00 cm**-1
     1:       0.00 cm**-1
     2:       0.00 cm**-1
     3:       0.00 cm**-1
     4:       0.00 cm**-1
     5:       0.00 cm**-1
     6:      12.99 cm**-1
     7:      23.59 cm**-1
     8:      33.92 cm**-1
     9:      35.65 cm**-1
    10:      44.09 cm**-1
    11:      53.03 cm**-1
    12:      53.88 cm**-1
    13:      63.92 cm**-1
    14:      68.35 cm**-1
    15:      70.61 cm**-1
    16:      72.41 cm**-1
    17:     113.38 cm**-1
    18:     130.22 cm**-1
    19:     156.41 cm**-1
    20:     179.55 cm**-1
    21:     184.07 cm**-1
    22:     194.21 cm**-1
    23:     196.97 cm**-1
    24:     203.61 cm**-1
    25:     224.56 cm**-1
    26:     236.11 cm**-1
    27:     245.65 cm**-1
    28:     248.74 cm**-1
    29:     257.24 cm**-1
    30:     277.95 cm**-1
    31:     296.60 cm**-1
    32:     306.24 cm**-1
    33:     326.76 cm**-1
    34:     340.16 cm**-1
    35:     352.10 cm**-1
    36:     355.92 cm**-1
    37:     361.48 cm**-1
    38:     362.08 cm**-1
    39:     370.37 cm**-1
    40:     398.89 cm**-1
    41:     415.04 cm**-1
    42:     456.66 cm**-1
    43:     499.22 cm**-1
    44:     515.88 cm**-1
    45:     529.77 cm**-1
    46:     545.39 cm**-1
    47:     548.33 cm**-1
    48:     569.00 cm**-1
    49:     588.13 cm**-1
    50:     602.45 cm**-1
    51:     632.11 cm**-1
    52:     651.39 cm**-1
    53:     674.22 cm**-1
    54:     702.03 cm**-1
    55:     712.28 cm**-1
    56:     717.36 cm**-1
    57:     758.87 cm**-1
    58:     791.16 cm**-1
    59:     862.49 cm**-1
    60:     989.77 cm**-1
    61:    1078.88 cm**-1
    62:    1089.50 cm**-1
    63:    1106.33 cm**-1
    64:    1107.33 cm**-1
    65:    1119.71 cm**-1
    66:    1128.44 cm**-1
    67:    1137.91 cm**-1
    68:    1139.93 cm**-1
    69:    1146.46 cm**-1
    70:    1154.65 cm**-1
    71:    1159.02 cm**-1
    72:    1174.02 cm**-1
    73:    1183.12 cm**-1
    74:    1209.57 cm**-1
    75:    1239.62 cm**-1
    76:    1260.18 cm**-1
    77:    1278.87 cm**-1
    78:    1329.99 cm**-1
    79:    1367.47 cm**-1
    80:    1666.52 cm**-1
    81:    1718.26 cm**-1
    82:    3404.53 cm**-1
    83:    3790.46 cm**-1

IR SPECTRUM
-----------

 Mode   freq       eps      Int      T**2         TX        TY        TZ
       cm**-1   L/(mol*cm) km/mol    a.u.
----------------------------------------------------------------------------
  6:     12.99   0.000953    4.82  0.022900  ( 0.024058 -0.008099 -0.149185)
  7:     23.59   0.000551    2.78  0.007284  (-0.038232  0.020361  0.073537)
  8:     33.92   0.000473    2.39  0.004349  ( 0.002837  0.011324  0.064905)
  9:     35.65   0.000571    2.89  0.005002  (-0.010271  0.005943  0.069720)
 10:     44.09   0.001376    6.96  0.009742  ( 0.034979  0.014291  0.091182)
 11:     53.03   0.003432   17.34  0.020194  (-0.037597  0.005047  0.136950)
 12:     53.88   0.000379    1.91  0.002194  (-0.042964 -0.016325 -0.009049)
 13:     63.92   0.022509  113.75  0.109888  ( 0.104454  0.001205 -0.314605)
 14:     68.35   0.002283   11.54  0.010423  ( 0.066476  0.010543 -0.076766)
 15:     70.61   0.000280    1.41  0.001237  (-0.019428 -0.013526  0.026004)
 16:     72.41   0.000968    4.89  0.004171  ( 0.003146 -0.006407 -0.064184)
 17:    113.38   0.000582    2.94  0.001602  ( 0.004869 -0.025799 -0.030204)
 18:    130.22   0.000225    1.14  0.000539  (-0.004223  0.022783 -0.001580)
 19:    156.41   0.000306    1.54  0.000610  (-0.004695  0.015069  0.018990)
 20:    179.55   0.001217    6.15  0.002115  (-0.038366 -0.011991  0.022340)
 21:    184.07   0.004898   24.75  0.008304  ( 0.069903 -0.007952  0.057920)
 22:    194.21   0.000043    0.22  0.000070  (-0.003586 -0.005709 -0.004940)
 23:    196.97   0.000247    1.25  0.000391  ( 0.019664 -0.001954 -0.000328)
 24:    203.61   0.001526    7.71  0.002339  ( 0.044961  0.008504 -0.015675)
 25:    224.56   0.000327    1.65  0.000455  (-0.019913 -0.005582 -0.005182)
 26:    236.11   0.000010    0.05  0.000013  (-0.000108  0.003366 -0.001280)
 27:    245.65   0.000168    0.85  0.000214  ( 0.012388 -0.007233  0.002825)
 28:    248.74   0.000413    2.09  0.000518  ( 0.022535  0.002861  0.001528)
 29:    257.24   0.002041   10.31  0.002476  ( 0.045926  0.013017  0.014040)
 30:    277.95   0.001361    6.88  0.001528  ( 0.012591 -0.035648 -0.009914)
 31:    296.60   0.000032    0.16  0.000034  ( 0.000418 -0.004203  0.004023)
 32:    306.24   0.000153    0.77  0.000156  (-0.010306  0.002926  0.006436)
 33:    326.76   0.000199    1.01  0.000190  (-0.006219 -0.008731 -0.008668)
 34:    340.16   0.000580    2.93  0.000532  (-0.010161 -0.009779 -0.018261)
 35:    352.10   0.000232    1.17  0.000206  (-0.004914 -0.002694 -0.013214)
 36:    355.92   0.000483    2.44  0.000424  ( 0.011382  0.016758  0.003680)
 37:    361.48   0.001740    8.80  0.001503  ( 0.022316  0.029315  0.012048)
 38:    362.08   0.000883    4.46  0.000761  ( 0.021233  0.015724  0.007913)
 39:    370.37   0.000094    0.48  0.000079  ( 0.001990 -0.008651 -0.000832)
 40:    398.89   0.003167   16.01  0.002478  ( 0.043742  0.013694  0.019415)
 41:    415.04   0.013703   69.25  0.010303  ( 0.089225  0.037136  0.031027)
 42:    456.66   0.001776    8.98  0.001214  (-0.016209 -0.014997 -0.026949)
 43:    499.22   0.012410   62.71  0.007757  (-0.003473  0.082282  0.031225)
 44:    515.88   0.007262   36.70  0.004393  (-0.031907  0.055737  0.016373)
 45:    529.77   0.009226   46.62  0.005434  ( 0.002628 -0.058624 -0.044618)
 46:    545.39   0.011011   55.65  0.006300  (-0.038449 -0.068477  0.011532)
 47:    548.33   0.001518    7.67  0.000864  (-0.011161  0.022800  0.014811)
 48:    569.00   0.001237    6.25  0.000679  (-0.015810  0.016704 -0.012228)
 49:    588.13   0.003105   15.69  0.001648  (-0.001754 -0.037915 -0.014385)
 50:    602.45   0.000347    1.75  0.000180  (-0.010350  0.005856  0.006175)
 51:    632.11   0.024252  122.56  0.011973  ( 0.006104  0.105573  0.028107)
 52:    651.39   0.018930   95.67  0.009069  ( 0.009623 -0.093799 -0.013355)
 53:    674.22   0.001071    5.41  0.000496  ( 0.004877  0.021426  0.003578)
 54:    702.03   0.023194  117.21  0.010310  (-0.041404  0.001629  0.092700)
 55:    712.28   0.000621    3.14  0.000272  (-0.003564  0.008269 -0.013821)
 56:    717.36   0.005583   28.21  0.002429  (-0.005722  0.042030  0.025089)
 57:    758.87   0.000820    4.15  0.000337  ( 0.012676 -0.013281 -0.000544)
 58:    791.16   0.019480   98.44  0.007684  (-0.007568 -0.072570  0.048579)
 59:    862.49   0.004023   20.33  0.001456  (-0.005825  0.037705 -0.000102)
 60:    989.77   0.009916   50.11  0.003126  ( 0.001372 -0.044433 -0.033915)
 61:   1078.88   0.017018   86.00  0.004922  ( 0.050832  0.044906 -0.017946)
 62:   1089.50   0.041679  210.63  0.011938  ( 0.088390 -0.005972  0.063949)
 63:   1106.33   0.031255  157.95  0.008816  ( 0.011736  0.003867 -0.093078)
 64:   1107.33   0.000462    2.34  0.000130  ( 0.005217 -0.007224  0.007132)
 65:   1119.71   0.036800  185.97  0.010256  ( 0.076174  0.039159 -0.054038)
 66:   1128.44   0.115983  586.13  0.032075  (-0.176474 -0.015955  0.026018)
 67:   1137.91   0.005980   30.22  0.001640  ( 0.031049  0.002621 -0.025864)
 68:   1139.93   0.037187  187.93  0.010180  (-0.083543 -0.002665 -0.056513)
 69:   1146.46   0.134660  680.52  0.036654  ( 0.068026 -0.032099  0.176057)
 70:   1154.65   0.081937  414.07  0.022145  ( 0.126405 -0.020104 -0.075911)
 71:   1159.02   0.076749  387.86  0.020664  ( 0.070837 -0.054022  0.112819)
 72:   1174.02   0.079492  401.72  0.021130  ( 0.004398  0.047677 -0.137248)
 73:   1183.12   0.006950   35.12  0.001833  ( 0.030132 -0.006399  0.029737)
 74:   1209.57   0.010730   54.22  0.002768  (-0.020998  0.044733 -0.018060)
 75:   1239.62   0.001838    9.29  0.000463  ( 0.017946 -0.011138  0.004077)
 76:   1260.18   0.004861   24.56  0.001204  ( 0.026860 -0.021878 -0.001887)
 77:   1278.87   0.006937   35.05  0.001693  ( 0.021628 -0.015104 -0.031571)
 78:   1329.99   0.045294  228.90  0.010628  (-0.024265 -0.099921 -0.007388)
 79:   1367.47   0.029061  146.86  0.006632  (-0.031490 -0.074249  0.011284)
 80:   1666.52   0.021269  107.49  0.003983  ( 0.032669 -0.052833  0.011147)
 81:   1718.26   0.186886  944.44  0.033942  ( 0.182469 -0.023173  0.010478)
 82:   3404.53   0.215117  1087.11  0.019718  ( 0.135904  0.000408  0.035325)
 83:   3790.46   0.014431   72.93  0.001188  ( 0.026966  0.020209  0.007247)

--------------------------
THERMOCHEMISTRY AT 298.15K
--------------------------

Temperature         ...   298.15 K
Pressure            ...     1.00 atm
Total Mass          ...   431.07 AMU
Quasi RRHO          ...     True
Cut-Off Frequency   ...     1.00 cm^-1

Throughout the following assumptions are being made:
  (1) The electronic state is orbitally nondegenerate
  (2) There are no thermally accessible electronically excited states
  (3) Hindered rotations indicated by low frequency modes are not
      treated as such but are treated as vibrations and this may
      cause some error
  (4) All equations used are the standard statistical mechanics
      equations for an ideal gas
  (5) All vibrations are strictly harmonic

freq.      12.99  E(vib)   ...       0.57
freq.      23.59  E(vib)   ...       0.56
freq.      33.92  E(vib)   ...       0.55
freq.      35.65  E(vib)   ...       0.54
freq.      44.09  E(vib)   ...       0.53
freq.      53.03  E(vib)   ...       0.52
freq.      53.88  E(vib)   ...       0.52
freq.      63.92  E(vib)   ...       0.51
freq.      68.35  E(vib)   ...       0.50
freq.      70.61  E(vib)   ...       0.50
freq.      72.41  E(vib)   ...       0.49
freq.     113.38  E(vib)   ...       0.45
freq.     130.22  E(vib)   ...       0.43
freq.     156.41  E(vib)   ...       0.40
freq.     179.55  E(vib)   ...       0.37
freq.     184.07  E(vib)   ...       0.37
freq.     194.21  E(vib)   ...       0.36
freq.     196.97  E(vib)   ...       0.35
freq.     203.61  E(vib)   ...       0.35
freq.     224.56  E(vib)   ...       0.33
freq.     236.11  E(vib)   ...       0.32
freq.     245.65  E(vib)   ...       0.31
freq.     248.74  E(vib)   ...       0.31
freq.     257.24  E(vib)   ...       0.30
freq.     277.95  E(vib)   ...       0.28
freq.     296.60  E(vib)   ...       0.27
freq.     306.24  E(vib)   ...       0.26
freq.     326.76  E(vib)   ...       0.24
freq.     340.16  E(vib)   ...       0.23
freq.     352.10  E(vib)   ...       0.23
freq.     355.92  E(vib)   ...       0.22
freq.     361.48  E(vib)   ...       0.22
freq.     362.08  E(vib)   ...       0.22
freq.     370.37  E(vib)   ...       0.21
freq.     398.89  E(vib)   ...       0.19
freq.     415.04  E(vib)   ...       0.19
freq.     456.66  E(vib)   ...       0.16
freq.     499.22  E(vib)   ...       0.14
freq.     515.88  E(vib)   ...       0.13
freq.     529.77  E(vib)   ...       0.13
freq.     545.39  E(vib)   ...       0.12
freq.     548.33  E(vib)   ...       0.12
freq.     569.00  E(vib)   ...       0.11
freq.     588.13  E(vib)   ...       0.10
freq.     602.45  E(vib)   ...       0.10
freq.     632.11  E(vib)   ...       0.09
freq.     651.39  E(vib)   ...       0.08
freq.     674.22  E(vib)   ...       0.08
freq.     702.03  E(vib)   ...       0.07
freq.     712.28  E(vib)   ...       0.07
freq.     717.36  E(vib)   ...       0.07
freq.     758.87  E(vib)   ...       0.06
freq.     791.16  E(vib)   ...       0.05
freq.     862.49  E(vib)   ...       0.04
freq.     989.77  E(vib)   ...       0.02
freq.    1078.88  E(vib)   ...       0.02
freq.    1089.50  E(vib)   ...       0.02
freq.    1106.33  E(vib)   ...       0.02
freq.    1107.33  E(vib)   ...       0.02
freq.    1119.71  E(vib)   ...       0.01
freq.    1128.44  E(vib)   ...       0.01
freq.    1137.91  E(vib)   ...       0.01
freq.    1139.93  E(vib)   ...       0.01
freq.    1146.46  E(vib)   ...       0.01
freq.    1154.65  E(vib)   ...       0.01
freq.    1159.02  E(vib)   ...       0.01
freq.    1174.02  E(vib)   ...       0.01
freq.    1183.12  E(vib)   ...       0.01
freq.    1209.57  E(vib)   ...       0.01
freq.    1239.62  E(vib)   ...       0.01
freq.    1260.18  E(vib)   ...       0.01
freq.    1278.87  E(vib)   ...       0.01
freq.    1329.99  E(vib)   ...       0.01
freq.    1367.47  E(vib)   ...       0.01
freq.    1666.52  E(vib)   ...       0.00
freq.    1718.26  E(vib)   ...       0.00
freq.    3404.53  E(vib)   ...       0.00
freq.    3790.46  E(vib)   ...       0.00

------------
INNER ENERGY
------------

The inner energy is: U= E(el) + E(ZPE) + E(vib) + E(rot) + E(trans)
    E(el)   - is the total energy from the electronic structure calculation
              = E(kin-el) + E(nuc-el) + E(el-el) + E(nuc-nuc)
    E(ZPE)  - the the zero temperature vibrational energy from the frequency calculation
    E(vib)  - the the finite temperature correction to E(ZPE) due to population
              of excited vibrational states
    E(rot)  - is the rotational thermal energy
    E(trans)- is the translational thermal energy

Summary of contributions to the inner energy U:
Electronic energy                ...  -2030.36668273 Eh
Zero point energy                ...      0.11984088 Eh      75.20 kcal/mol
Thermal vibrational correction   ...      0.02415503 Eh      15.16 kcal/mol
Thermal rotational correction    ...      0.00141627 Eh       0.89 kcal/mol
Thermal translational correction ...      0.00141627 Eh       0.89 kcal/mol
-----------------------------------------------------------------------
Total thermal energy                  -2030.21985427 Eh

Summary of corrections to the electronic energy:
(perhaps to be used in another calculation)
Total thermal correction                  0.02698757 Eh      16.93 kcal/mol
Non-thermal (ZPE) correction              0.11984088 Eh      75.20 kcal/mol
-----------------------------------------------------------------------
Total correction                          0.14682846 Eh      92.14 kcal/mol

--------
ENTHALPY
--------

The enthalpy is H = U + kB*T
                kB is Boltzmann's constant
Total thermal energy              ...  -2030.21985427 Eh
Thermal Enthalpy correction       ...      0.00094421 Eh       0.59 kcal/mol
-----------------------------------------------------------------------
Total Enthalpy                    ...  -2030.21891006 Eh

Note: Only C1 symmetry has been detected, increase convergence thresholds
      if your molecule has a higher symmetry. Symmetry factor of 1.0 is
      used for the rotational entropy correction.

Note: Rotational entropy computed according to Herzberg
Infrared and Raman Spectra, Chapter V,1, Van Nostrand Reinhold, 1945
Point Group:  C1, Symmetry Number:   1
Rotational constants in cm-1:     0.016764     0.003404     0.003241

Vibrational entropy computed according to the QRRHO of S. Grimme
Chem.Eur.J. 2012 18 9955 using a reference frequency of 100.0 cm-1

-------
ENTROPY
-------

The entropy contributions are T*S = T*(S(el)+S(vib)+S(rot)+S(trans))
     S(el)   - electronic entropy

                             ****ORCA TERMINATED NORMALLY****
TOTAL RUN TIME: 0 days 0 hours 18 minutes 49 seconds 171 msec
