                         Program Version 6.0.1  -  RELEASE   -
|  1> !r2scanh def2-TZVP freq d3 TightSCF SlowConv defgrid2
|  2>
|  3> %pal
|  4> nprocs 20
|  5> end
|  6>
|  7> %scf
|  8> MaxIter 1500
|  9> end
| 10>
| 11> %maxcore 8000
| 12>
| 13> !CPCM
| 14> %cpcm smd true
| 15> SMDsolvent "ACETONITRILE"
| 16> end
| 17>
| 18> * xyz 0 2
| 19> 6        4.742154000     -0.047178000     -0.273600000
| 20> 8        5.098696000     -0.886081000     -1.225853000
| 21> 8        5.279182000      0.974634000      0.036484000
| 22> 6        3.458081000     -0.527516000      0.440651000
| 23> 6        2.203326000      0.147018000     -0.180222000
| 24> 6        0.860932000     -0.522736000      0.240525000
| 25> 6       -0.372253000      0.404751000      0.019770000
| 26> 6       -1.719652000     -0.377803000      0.009104000
| 27> 6       -2.960129000      0.528706000      0.237413000
| 28> 6       -4.240745000     -0.155661000     -0.179864000
| 29> 9        3.317906000     -1.862524000      0.351519000
| 30> 9        3.538297000     -0.186611000      1.734664000
| 31> 9        2.193756000      1.436871000      0.190208000
| 32> 9        2.312187000      0.083974000     -1.518032000
| 33> 9        0.696666000     -1.640470000     -0.483220000
| 34> 9        0.923067000     -0.850518000      1.538959000
| 35> 9       -0.404022000      1.317050000      1.001648000
| 36> 9       -0.234868000      1.034226000     -1.156987000
| 37> 9       -1.692195000     -1.313330000      0.972011000
| 38> 9       -1.854390000     -0.982803000     -1.180873000
| 39> 9       -2.830571000      1.655476000     -0.484797000
| 40> 9       -3.011134000      0.876502000      1.544610000
| 41> 9       -4.444347000     -1.336428000      0.367013000
| 42> 9       -5.302737000      0.616489000     -0.097659000
| 43> 1        5.893343000     -0.538706000     -1.672705000
| 44> *
| 45>
| 46>                          ****END OF INPUT****

CARTESIAN COORDINATES (ANGSTROEM)
---------------------------------
  C      4.742154   -0.047178   -0.273600
  O      5.098696   -0.886081   -1.225853
  O      5.279182    0.974634    0.036484
  C      3.458081   -0.527516    0.440651
  C      2.203326    0.147018   -0.180222
  C      0.860932   -0.522736    0.240525
  C     -0.372253    0.404751    0.019770
  C     -1.719652   -0.377803    0.009104
  C     -2.960129    0.528706    0.237413
  C     -4.240745   -0.155661   -0.179864
  F      3.317906   -1.862524    0.351519
  F      3.538297   -0.186611    1.734664
  F      2.193756    1.436871    0.190208
  F      2.312187    0.083974   -1.518032
  F      0.696666   -1.640470   -0.483220
  F      0.923067   -0.850518    1.538959
  F     -0.404022    1.317050    1.001648
  F     -0.234868    1.034226   -1.156987
  F     -1.692195   -1.313330    0.972011
  F     -1.854390   -0.982803   -1.180873
  F     -2.830571    1.655476   -0.484797
  F     -3.011134    0.876502    1.544610
  F     -4.444347   -1.336428    0.367013
  F     -5.302737    0.616489   -0.097659
  H      5.893343   -0.538706   -1.672705

 Total Charge           Charge          ....    0
 Multiplicity           Mult            ....    2
 Number of Electrons    NEL             ....  191
 Basis Dimension        Dim             ....  750

ORBITAL ENERGIES
----------------
                 SPIN UP ORBITALS
  NO   OCC          E(Eh)            E(eV)
   0   1.0000     -24.737690      -673.1468
   1   1.0000     -24.736603      -673.1172
   2   1.0000     -24.734176      -673.0511
   3   1.0000     -24.734060      -673.0480
   4   1.0000     -24.733714      -673.0386
   5   1.0000     -24.733458      -673.0316
   6   1.0000     -24.733434      -673.0309
   7   1.0000     -24.733101      -673.0219
   8   1.0000     -24.732700      -673.0110
   9   1.0000     -24.732166      -672.9965
  10   1.0000     -24.728398      -672.8939
  11   1.0000     -24.724310      -672.7827
  12   1.0000     -24.723618      -672.7638
  13   1.0000     -24.721870      -672.7163
  14   1.0000     -19.197230      -522.3832
  15   1.0000     -19.141296      -520.8611
  16   1.0000     -10.389648      -282.7167
  17   1.0000     -10.389244      -282.7057
  18   1.0000     -10.387301      -282.6528
  19   1.0000     -10.385404      -282.6012
  20   1.0000     -10.383396      -282.5466
  21   1.0000     -10.376211      -282.3511
  22   1.0000     -10.360746      -281.9302
  23   1.0000     -10.326619      -281.0016
  24   1.0000      -1.345774       -36.6204
  25   1.0000      -1.335524       -36.3415
  26   1.0000      -1.327755       -36.1301
  27   1.0000      -1.318293       -35.8726
  28   1.0000      -1.316885       -35.8343
  29   1.0000      -1.309682       -35.6383
  30   1.0000      -1.309234       -35.6261
  31   1.0000      -1.274674       -34.6856
  32   1.0000      -1.269337       -34.5404
  33   1.0000      -1.267276       -34.4843
  34   1.0000      -1.261353       -34.3232
  35   1.0000      -1.258525       -34.2462
  36   1.0000      -1.252895       -34.0930
  37   1.0000      -1.251393       -34.0521
  38   1.0000      -1.153049       -31.3761
  39   1.0000      -1.066026       -29.0081
  40   1.0000      -0.851607       -23.1734
  41   1.0000      -0.835988       -22.7484
  42   1.0000      -0.811305       -22.0767
  43   1.0000      -0.775490       -21.1021
  44   1.0000      -0.730701       -19.8834
  45   1.0000      -0.689532       -18.7631
  46   1.0000      -0.673944       -18.3389
  47   1.0000      -0.662066       -18.0157
  48   1.0000      -0.640059       -17.4169
  49   1.0000      -0.638344       -17.3702
  50   1.0000      -0.628376       -17.0990
  51   1.0000      -0.620677       -16.8895
  52   1.0000      -0.615650       -16.7527
  53   1.0000      -0.614059       -16.7094
  54   1.0000      -0.603041       -16.4096
  55   1.0000      -0.597958       -16.2713
  56   1.0000      -0.593915       -16.1612
  57   1.0000      -0.590986       -16.0815
  58   1.0000      -0.580663       -15.8007
  59   1.0000      -0.579860       -15.7788
  60   1.0000      -0.573068       -15.5940
  61   1.0000      -0.563585       -15.3359
  62   1.0000      -0.547193       -14.8899
  63   1.0000      -0.512730       -13.9521
  64   1.0000      -0.505834       -13.7644
  65   1.0000      -0.503912       -13.7121
  66   1.0000      -0.496315       -13.5054
  67   1.0000      -0.494001       -13.4424
  68   1.0000      -0.490141       -13.3374
  69   1.0000      -0.483590       -13.1591
  70   1.0000      -0.478640       -13.0245
  71   1.0000      -0.475952       -12.9513
  72   1.0000      -0.474992       -12.9252
  73   1.0000      -0.472096       -12.8464
  74   1.0000      -0.467850       -12.7308
  75   1.0000      -0.465768       -12.6742
  76   1.0000      -0.461245       -12.5511
  77   1.0000      -0.455815       -12.4033
  78   1.0000      -0.451898       -12.2968
  79   1.0000      -0.448352       -12.2003
  80   1.0000      -0.443734       -12.0746
  81   1.0000      -0.443184       -12.0596
  82   1.0000      -0.440141       -11.9769
  83   1.0000      -0.436257       -11.8711
  84   1.0000      -0.435285       -11.8447
  85   1.0000      -0.431423       -11.7396
  86   1.0000      -0.430751       -11.7213
  87   1.0000      -0.428933       -11.6719
  88   1.0000      -0.424889       -11.5618
  89   1.0000      -0.418129       -11.3779
  90   1.0000      -0.401760       -10.9324
  91   1.0000      -0.372693       -10.1415
  92   1.0000      -0.351514        -9.5652
  93   1.0000      -0.338290        -9.2053
  94   1.0000      -0.303782        -8.2663
  95   1.0000      -0.259133        -7.0514
  96   0.0000      -0.063483        -1.7275
  97   0.0000      -0.014853        -0.4042
  98   0.0000       0.001656         0.0451
  99   0.0000       0.028253         0.7688
 100   0.0000       0.041516         1.1297

                 SPIN DOWN ORBITALS
  NO   OCC          E(Eh)            E(eV)
   0   1.0000     -24.734179      -673.0512
   1   1.0000     -24.734053      -673.0478
   2   1.0000     -24.733712      -673.0385
   3   1.0000     -24.733473      -673.0320
   4   1.0000     -24.733434      -673.0310
   5   1.0000     -24.733434      -673.0310
   6   1.0000     -24.732858      -673.0153
   7   1.0000     -24.732700      -673.0110
   8   1.0000     -24.732354      -673.0016
   9   1.0000     -24.732166      -672.9965
  10   1.0000     -24.728419      -672.8945
  11   1.0000     -24.723618      -672.7638
  12   1.0000     -24.722526      -672.7341
  13   1.0000     -24.721870      -672.7163
  14   1.0000     -19.197230      -522.3832
  15   1.0000     -19.141296      -520.8612
  16   1.0000     -10.389666      -282.7172
  17   1.0000     -10.389252      -282.7059
  18   1.0000     -10.387386      -282.6551
  19   1.0000     -10.385406      -282.6013
  20   1.0000     -10.382754      -282.5291
  21   1.0000     -10.376212      -282.3511
  22   1.0000     -10.343089      -281.4498
  23   1.0000     -10.326619      -281.0016
  24   1.0000      -1.345483       -36.6124
  25   1.0000      -1.333322       -36.2815
  26   1.0000      -1.323512       -36.0146
  27   1.0000      -1.316980       -35.8369
  28   1.0000      -1.316745       -35.8304
  29   1.0000      -1.309581       -35.6355
  30   1.0000      -1.306829       -35.5606
  31   1.0000      -1.274568       -34.6827
  32   1.0000      -1.267521       -34.4910
  33   1.0000      -1.262440       -34.3527
  34   1.0000      -1.260951       -34.3122
  35   1.0000      -1.258486       -34.2451
  36   1.0000      -1.251394       -34.0522
  37   1.0000      -1.250988       -34.0411
  38   1.0000      -1.153049       -31.3761
  39   1.0000      -1.066027       -29.0081
  40   1.0000      -0.850801       -23.1515
  41   1.0000      -0.833217       -22.6730
  42   1.0000      -0.806960       -21.9585
  43   1.0000      -0.770211       -20.9585
  44   1.0000      -0.725342       -19.7375
  45   1.0000      -0.685594       -18.6560
  46   1.0000      -0.669618       -18.2212
  47   1.0000      -0.661951       -18.0126
  48   1.0000      -0.639587       -17.4040
  49   1.0000      -0.636576       -17.3221
  50   1.0000      -0.628079       -17.0909
  51   1.0000      -0.619103       -16.8466
  52   1.0000      -0.614246       -16.7145
  53   1.0000      -0.612075       -16.6554
  54   1.0000      -0.600817       -16.3491
  55   1.0000      -0.596784       -16.2393
  56   1.0000      -0.590352       -16.0643
  57   1.0000      -0.588208       -16.0060
  58   1.0000      -0.578535       -15.7427
  59   1.0000      -0.577564       -15.7163
  60   1.0000      -0.571533       -15.5522
  61   1.0000      -0.563391       -15.3307
  62   1.0000      -0.514964       -14.0129
  63   1.0000      -0.512717       -13.9517
  64   1.0000      -0.504985       -13.7413
  65   1.0000      -0.503726       -13.7071
  66   1.0000      -0.494437       -13.4543
  67   1.0000      -0.493563       -13.4305
  68   1.0000      -0.489186       -13.3114
  69   1.0000      -0.482898       -13.1403
  70   1.0000      -0.478046       -13.0083
  71   1.0000      -0.475607       -12.9419
  72   1.0000      -0.473740       -12.8911
  73   1.0000      -0.470112       -12.7924
  74   1.0000      -0.465449       -12.6655
  75   1.0000      -0.460963       -12.5435
  76   1.0000      -0.455797       -12.4029
  77   1.0000      -0.453529       -12.3412
  78   1.0000      -0.449964       -12.2441
  79   1.0000      -0.448141       -12.1945
  80   1.0000      -0.443207       -12.0603
  81   1.0000      -0.440326       -11.9819
  82   1.0000      -0.439927       -11.9710
  83   1.0000      -0.435760       -11.8576
  84   1.0000      -0.434329       -11.8187
  85   1.0000      -0.430392       -11.7116
  86   1.0000      -0.429859       -11.6971
  87   1.0000      -0.428324       -11.6553
  88   1.0000      -0.423736       -11.5304
  89   1.0000      -0.416993       -11.3470
  90   1.0000      -0.399749       -10.8777
  91   1.0000      -0.370180       -10.0731
  92   1.0000      -0.351471        -9.5640
  93   1.0000      -0.336399        -9.1539
  94   1.0000      -0.303702        -8.2642
  95   0.0000      -0.094658        -2.5758
  96   0.0000      -0.063386        -1.7248
  97   0.0000      -0.012949        -0.3524
  98   0.0000       0.004241         0.1154
  99   0.0000       0.031680         0.8621

MULLIKEN ATOMIC CHARGES AND SPIN POPULATIONS
--------------------------------------------
   0 C :    0.281291   -0.000007
   1 O :   -0.365026   -0.000001
   2 O :   -0.326265   -0.000006
   3 C :    0.413797   -0.000025
   4 C :    0.287900   -0.000082
   5 C :    0.320787   -0.000239
   6 C :    0.328855   -0.001329
   7 C :    0.307217   -0.003644
   8 C :    0.387405   -0.003871
   9 C :    0.264313    0.845673
  10 F :   -0.173834    0.000000
  11 F :   -0.169860   -0.000002
  12 F :   -0.165661    0.000002
  13 F :   -0.167934   -0.000005
  14 F :   -0.163349    0.000001
  15 F :   -0.162123   -0.000011
  16 F :   -0.162068    0.000027
  17 F :   -0.162929   -0.000051
  18 F :   -0.164860    0.000490
  19 F :   -0.162495    0.001328
  20 F :   -0.169237   -0.001376
  21 F :   -0.171806    0.033198
  22 F :   -0.147195    0.064391
  23 F :   -0.146237    0.065540
  24 H :    0.389315   -0.000001
Sum of atomic charges         :    0.0000000

LOEWDIN ATOMIC CHARGES AND SPIN POPULATIONS
-------------------------------------------
   0 C :   -0.496648   -0.000006
   1 O :    0.161704   -0.000001
   2 O :    0.134462   -0.000005
   3 C :   -0.464167   -0.000025
   4 C :   -0.468201   -0.000071
   5 C :   -0.471075   -0.000231
   6 C :   -0.470950   -0.000710
   7 C :   -0.468752   -0.000834
   8 C :   -0.502742    0.071185
   9 C :   -0.393972    0.719366
  10 F :    0.217152    0.000001
  11 F :    0.223145   -0.000002
  12 F :    0.233024    0.000004
  13 F :    0.229720   -0.000005
  14 F :    0.232617    0.000056
  15 F :    0.234149   -0.000009
  16 F :    0.234298    0.000150
  17 F :    0.232975   -0.000056
  18 F :    0.230980    0.000526
  19 F :    0.234446    0.004752
  20 F :    0.224568    0.000006
  21 F :    0.206411    0.032811
  22 F :    0.235030    0.086297
  23 F :    0.236601    0.086801
  24 H :    0.235225   -0.000000

  Mayer bond orders larger than 0.100000
B(  0-C ,  1-O ) :   1.2962 B(  0-C ,  2-O ) :   2.0426 B(  0-C ,  3-C ) :   0.8816
B(  1-O , 24-H ) :   0.8170 B(  3-C ,  4-C ) :   0.9504 B(  3-C , 10-F ) :   1.0805
B(  3-C , 11-F ) :   1.1005 B(  4-C ,  5-C ) :   0.9316 B(  4-C , 12-F ) :   1.0829
B(  4-C , 13-F ) :   1.0776 B(  5-C ,  6-C ) :   0.9319 B(  5-C , 14-F ) :   1.0817
B(  5-C , 15-F ) :   1.0849 B(  6-C ,  7-C ) :   0.9312 B(  6-C , 16-F ) :   1.0859
B(  6-C , 17-F ) :   1.0813 B(  7-C ,  8-C ) :   0.9291 B(  7-C , 18-F ) :   1.0792
B(  7-C , 19-F ) :   1.0883 B(  8-C ,  9-C ) :   0.9517 B(  8-C , 20-F ) :   1.0725
B(  8-C , 21-F ) :   1.0728 B(  9-C , 22-F ) :   1.1155 B(  9-C , 23-F ) :   1.1191

Dispersion correction           -0.008345294
FINAL SINGLE POINT ENERGY     -1853.549781711103

DIPOLE MOMENT
-------------

Method             : SCF
Type of density    : Electron Density
Multiplicity       :   2
Irrep              :   0
Energy             : -1853.5414364171620036 Eh
Relativity type    :
Basis              : AO
                                X                 Y                 Z
Electronic contribution:    -13.451574407      -0.258803158       2.066595486
Nuclear contribution   :     13.999937965      -0.275991748      -3.072490422
                        -----------------------------------------
Total Dipole Moment    :      0.548363559      -0.534794906      -1.005894935
                        -----------------------------------------
Magnitude (a.u.)       :      1.264330971
Magnitude (Debye)      :      3.213673935

VIBRATIONAL FREQUENCIES
-----------------------

Scaling factor for frequencies =  1.000000000  (already applied!)

     0:       0.00 cm**-1
     1:       0.00 cm**-1
     2:       0.00 cm**-1
     3:       0.00 cm**-1
     4:       0.00 cm**-1
     5:       0.00 cm**-1
     6:      24.17 cm**-1
     7:      34.81 cm**-1
     8:      38.55 cm**-1
     9:      49.01 cm**-1
    10:      57.22 cm**-1
    11:      65.57 cm**-1
    12:      66.95 cm**-1
    13:      73.04 cm**-1
    14:     115.56 cm**-1
    15:     137.72 cm**-1
    16:     157.16 cm**-1
    17:     185.90 cm**-1
    18:     198.46 cm**-1
    19:     203.22 cm**-1
    20:     207.58 cm**-1
    21:     224.55 cm**-1
    22:     239.94 cm**-1
    23:     251.44 cm**-1
    24:     256.97 cm**-1
    25:     262.87 cm**-1
    26:     288.04 cm**-1
    27:     308.61 cm**-1
    28:     319.80 cm**-1
    29:     340.95 cm**-1
    30:     360.09 cm**-1
    31:     368.85 cm**-1
    32:     372.28 cm**-1
    33:     377.63 cm**-1
    34:     379.07 cm**-1
    35:     416.81 cm**-1
    36:     463.95 cm**-1
    37:     518.39 cm**-1
    38:     521.84 cm**-1
    39:     552.56 cm**-1
    40:     563.59 cm**-1
    41:     577.95 cm**-1
    42:     589.67 cm**-1
    43:     612.04 cm**-1
    44:     622.23 cm**-1
    45:     646.49 cm**-1
    46:     651.17 cm**-1
    47:     688.96 cm**-1
    48:     717.84 cm**-1
    49:     728.87 cm**-1
    50:     771.33 cm**-1
    51:     784.46 cm**-1
    52:     886.49 cm**-1
    53:    1025.96 cm**-1
    54:    1087.72 cm**-1
    55:    1123.73 cm**-1
    56:    1145.20 cm**-1
    57:    1154.53 cm**-1
    58:    1157.21 cm**-1
    59:    1166.32 cm**-1
    60:    1170.16 cm**-1
    61:    1175.06 cm**-1
    62:    1180.57 cm**-1
    63:    1194.47 cm**-1
    64:    1209.01 cm**-1
    65:    1218.84 cm**-1
    66:    1246.10 cm**-1
    67:    1269.22 cm**-1
    68:    1282.59 cm**-1
    69:    1299.85 cm**-1
    70:    1340.28 cm**-1
    71:    1382.65 cm**-1
    72:    1422.43 cm**-1
    73:    1846.02 cm**-1
    74:    3650.61 cm**-1

IR SPECTRUM
-----------

 Mode   freq       eps      Int      T**2         TX        TY        TZ
       cm**-1   L/(mol*cm) km/mol    a.u.
----------------------------------------------------------------------------
  6:     24.17   0.000172    0.87  0.002217  (-0.018215 -0.043385  0.001585)
  7:     34.81   0.000106    0.54  0.000954  (-0.008922  0.020233 -0.021569)
  8:     38.55   0.000022    0.11  0.000175  ( 0.007505  0.010162 -0.003941)
  9:     49.01   0.000193    0.97  0.001227  ( 0.014536 -0.021358  0.023660)
 10:     57.22   0.000288    1.46  0.001572  ( 0.019360 -0.020287  0.028027)
 11:     65.57   0.000189    0.96  0.000900  ( 0.023144 -0.000986  0.019050)
 12:     66.95   0.000010    0.05  0.000045  ( 0.003116 -0.005436  0.002367)
 13:     73.04   0.000159    0.80  0.000679  ( 0.022385  0.006359  0.011707)
 14:    115.56   0.000173    0.87  0.000467  (-0.015100  0.015441  0.000977)
 15:    137.72   0.000022    0.11  0.000049  ( 0.003887  0.000947  0.005723)
 16:    157.16   0.000078    0.39  0.000154  ( 0.011482 -0.000577  0.004674)
 17:    185.90   0.002941   14.86  0.004937  ( 0.002052 -0.002343 -0.070194)
 18:    198.46   0.000185    0.94  0.000292  (-0.015029  0.006799  0.004421)
 19:    203.22   0.000333    1.68  0.000511  (-0.008327 -0.020817 -0.002826)
 20:    207.58   0.000204    1.03  0.000307  (-0.001555  0.014024 -0.010365)
 21:    224.55   0.000194    0.98  0.000270  ( 0.014301 -0.004784 -0.006510)
 22:    239.94   0.000020    0.10  0.000026  ( 0.000759 -0.003755  0.003369)
 23:    251.44   0.000087    0.44  0.000108  ( 0.005674  0.005225 -0.006996)
 24:    256.97   0.000015    0.08  0.000018  (-0.001797  0.003800 -0.000830)
 25:    262.87   0.000410    2.07  0.000486  ( 0.020093  0.006784 -0.006040)
 26:    288.04   0.001864    9.42  0.002019  (-0.041818  0.016420 -0.000857)
 27:    308.61   0.000214    1.08  0.000217  (-0.013172  0.003388  0.005649)
 28:    319.80   0.000120    0.61  0.000118  ( 0.004950 -0.004325  0.008620)
 29:    340.95   0.000044    0.22  0.000041  ( 0.002095  0.003474  0.004910)
 30:    360.09   0.000160    0.81  0.000138  ( 0.006363  0.008747  0.004609)
 31:    368.85   0.000195    0.99  0.000165  ( 0.003357  0.009690  0.007733)
 32:    372.28   0.000279    1.41  0.000234  (-0.010219  0.010208  0.005061)
 33:    377.63   0.000056    0.28  0.000046  (-0.004496  0.004168  0.002964)
 34:    379.07   0.000998    5.04  0.000821  (-0.026030 -0.011913 -0.001404)
 35:    416.81   0.000511    2.58  0.000383  ( 0.019132  0.003026 -0.002777)
 36:    463.95   0.001664    8.41  0.001119  ( 0.028348 -0.011768 -0.013304)
 37:    518.39   0.012157   61.43  0.007318  ( 0.083175  0.007408 -0.018577)
 38:    521.84   0.000806    4.08  0.000482  (-0.019117  0.006195  0.008856)
 39:    552.56   0.013025   65.82  0.007356  ( 0.082200  0.023684 -0.006170)
 40:    563.59   0.006135   31.00  0.003397  ( 0.025374 -0.051841  0.008103)
 41:    577.95   0.004799   24.25  0.002591  ( 0.015481  0.006890 -0.048002)
 42:    589.67   0.007429   37.54  0.003932  (-0.059265  0.018496 -0.008787)
 43:    612.04   0.006848   34.61  0.003492  ( 0.008080 -0.021628  0.054394)
 44:    622.23   0.001272    6.43  0.000638  (-0.018450 -0.003201  0.016952)
 45:    646.49   0.062946  318.11  0.030384  (-0.162056  0.058095 -0.027335)
 46:    651.17   0.005699   28.80  0.002731  (-0.007418  0.008021 -0.051104)
 47:    688.96   0.001933    9.77  0.000876  (-0.007873 -0.017570  0.022473)
 48:    717.84   0.010052   50.80  0.004370  (-0.056775 -0.012496 -0.031466)
 49:    728.87   0.002492   12.59  0.001067  ( 0.030103  0.007698 -0.010069)
 50:    771.33   0.001375    6.95  0.000556  (-0.019364 -0.005993  0.012055)
 51:    784.46   0.008307   41.98  0.003304  ( 0.025365  0.014347 -0.049550)
 52:    886.49   0.001901    9.61  0.000669  (-0.024722  0.007523  0.001260)
 53:   1025.96   0.013286   67.14  0.004041  (-0.062354  0.005851 -0.010904)
 54:   1087.72   0.040241  203.36  0.011545  (-0.009507 -0.040261 -0.099165)
 55:   1123.73   0.008465   42.78  0.002351  (-0.009172 -0.007505  0.047014)
 56:   1145.20   0.011250   56.85  0.003066  (-0.018104  0.048031  0.020757)
 57:   1154.53   0.030907  156.19  0.008354  (-0.015079  0.027621  0.085812)
 58:   1157.21   0.119509  603.95  0.032228  ( 0.030374  0.161628 -0.071985)
 59:   1166.32   0.006587   33.29  0.001762  ( 0.013701  0.012602 -0.037628)
 60:   1170.16   0.075334  380.71  0.020090  (-0.005196  0.140145 -0.020562)
 61:   1175.06   0.004518   22.83  0.001200  (-0.007201 -0.032598 -0.009245)
 62:   1180.57   0.258367  1305.68  0.068295  (-0.006503  0.090842  0.244950)
 63:   1194.47   0.001950    9.85  0.000509  ( 0.001773 -0.021925  0.005047)
 64:   1209.01   0.008697   43.95  0.002245  (-0.035779  0.005818 -0.030510)
 65:   1218.84   0.004628   23.39  0.001185  ( 0.000321  0.031961 -0.012784)
 66:   1246.10   0.049515  250.23  0.012400  (-0.020029  0.099725 -0.045321)
 67:   1269.22   0.019645   99.28  0.004830  (-0.043653  0.053216 -0.009625)
 68:   1282.59   0.013498   68.21  0.003284  ( 0.003334 -0.057204  0.000911)
 69:   1299.85   0.004335   21.91  0.001041  ( 0.019083 -0.018982 -0.017781)
 70:   1340.28   0.003184   16.09  0.000741  (-0.012982  0.023907 -0.001130)
 71:   1382.65   0.024194  122.27  0.005461  (-0.063803  0.010438  0.035790)
 72:   1422.43   0.015022   75.92  0.003296  ( 0.040608 -0.032770 -0.023934)
 73:   1846.02   0.094152  475.81  0.015916  ( 0.041757  0.104335  0.057329)
 74:   3650.61   0.050941  257.44  0.004355  (-0.051468 -0.002490  0.041225)

--------------------------
THERMOCHEMISTRY AT 298.15K
--------------------------

Temperature         ...   298.15 K
Pressure            ...     1.00 atm
Total Mass          ...   395.07 AMU
Quasi RRHO          ...     True
Cut-Off Frequency   ...     1.00 cm^-1

Throughout the following assumptions are being made:
  (1) The electronic state is orbitally nondegenerate
      but the spin degeneracy is treated
  (2) There are no thermally accessible electronically excited states
  (3) Hindered rotations indicated by low frequency modes are not
      treated as such but are treated as vibrations and this may
      cause some error
  (4) All equations used are the standard statistical mechanics
      equations for an ideal gas
  (5) All vibrations are strictly harmonic

freq.      24.17  E(vib)   ...       0.56
freq.      34.81  E(vib)   ...       0.54
freq.      38.55  E(vib)   ...       0.54
freq.      49.01  E(vib)   ...       0.53
freq.      57.22  E(vib)   ...       0.51
freq.      65.57  E(vib)   ...       0.50
freq.      66.95  E(vib)   ...       0.50
freq.      73.04  E(vib)   ...       0.49
freq.     115.56  E(vib)   ...       0.44
freq.     137.72  E(vib)   ...       0.42
freq.     157.16  E(vib)   ...       0.40
freq.     185.90  E(vib)   ...       0.37
freq.     198.46  E(vib)   ...       0.35
freq.     203.22  E(vib)   ...       0.35
freq.     207.58  E(vib)   ...       0.34
freq.     224.55  E(vib)   ...       0.33
freq.     239.94  E(vib)   ...       0.31
freq.     251.44  E(vib)   ...       0.30
freq.     256.97  E(vib)   ...       0.30
freq.     262.87  E(vib)   ...       0.29
freq.     288.04  E(vib)   ...       0.27
freq.     308.61  E(vib)   ...       0.26
freq.     319.80  E(vib)   ...       0.25
freq.     340.95  E(vib)   ...       0.23
freq.     360.09  E(vib)   ...       0.22
freq.     368.85  E(vib)   ...       0.21
freq.     372.28  E(vib)   ...       0.21
freq.     377.63  E(vib)   ...       0.21
freq.     379.07  E(vib)   ...       0.21
freq.     416.81  E(vib)   ...       0.18
freq.     463.95  E(vib)   ...       0.16
freq.     518.39  E(vib)   ...       0.13
freq.     521.84  E(vib)   ...       0.13
freq.     552.56  E(vib)   ...       0.12
freq.     563.59  E(vib)   ...       0.11
freq.     577.95  E(vib)   ...       0.11
freq.     589.67  E(vib)   ...       0.10
freq.     612.04  E(vib)   ...       0.10
freq.     622.23  E(vib)   ...       0.09
freq.     646.49  E(vib)   ...       0.09
freq.     651.17  E(vib)   ...       0.08
freq.     688.96  E(vib)   ...       0.07
freq.     717.84  E(vib)   ...       0.07
freq.     728.87  E(vib)   ...       0.06
freq.     771.33  E(vib)   ...       0.05
freq.     784.46  E(vib)   ...       0.05
freq.     886.49  E(vib)   ...       0.04
freq.    1025.96  E(vib)   ...       0.02
freq.    1087.72  E(vib)   ...       0.02
freq.    1123.73  E(vib)   ...       0.01
freq.    1145.20  E(vib)   ...       0.01
freq.    1154.53  E(vib)   ...       0.01
freq.    1157.21  E(vib)   ...       0.01
freq.    1166.32  E(vib)   ...       0.01
freq.    1170.16  E(vib)   ...       0.01
freq.    1175.06  E(vib)   ...       0.01
freq.    1180.57  E(vib)   ...       0.01
freq.    1194.47  E(vib)   ...       0.01
freq.    1209.01  E(vib)   ...       0.01
freq.    1218.84  E(vib)   ...       0.01
freq.    1246.10  E(vib)   ...       0.01
freq.    1269.22  E(vib)   ...       0.01
freq.    1282.59  E(vib)   ...       0.01
freq.    1299.85  E(vib)   ...       0.01
freq.    1340.28  E(vib)   ...       0.01
freq.    1382.65  E(vib)   ...       0.01
freq.    1422.43  E(vib)   ...       0.00
freq.    1846.02  E(vib)   ...       0.00
freq.    3650.61  E(vib)   ...       0.00

------------
INNER ENERGY
------------

The inner energy is: U= E(el) + E(ZPE) + E(vib) + E(rot) + E(trans)
    E(el)   - is the total energy from the electronic structure calculation
              = E(kin-el) + E(nuc-el) + E(el-el) + E(nuc-nuc)
    E(ZPE)  - the the zero temperature vibrational energy from the frequency calculation
    E(vib)  - the the finite temperature correction to E(ZPE) due to population
              of excited vibrational states
    E(rot)  - is the rotational thermal energy
    E(trans)- is the translational thermal energy

Summary of contributions to the inner energy U:
Electronic energy                ...  -1853.54978171 Eh
Zero point energy                ...      0.10714040 Eh      67.23 kcal/mol
Thermal vibrational correction   ...      0.01980983 Eh      12.43 kcal/mol
Thermal rotational correction    ...      0.00141627 Eh       0.89 kcal/mol
Thermal translational correction ...      0.00141627 Eh       0.89 kcal/mol
-----------------------------------------------------------------------
Total thermal energy                  -1853.41999895 Eh

Summary of corrections to the electronic energy:
(perhaps to be used in another calculation)
Total thermal correction                  0.02264237 Eh      14.21 kcal/mol
Non-thermal (ZPE) correction              0.10714040 Eh      67.23 kcal/mol
-----------------------------------------------------------------------
Total correction                          0.12978276 Eh      81.44 kcal/mol

--------
ENTHALPY
--------

The enthalpy is H = U + kB*T
                kB is Boltzmann's constant
Total thermal energy              ...  -1853.41999895 Eh
Thermal Enthalpy correction       ...      0.00094421 Eh       0.59 kcal/mol
-----------------------------------------------------------------------
Total Enthalpy                    ...  -1853.41905474 Eh

Note: Only C1 symmetry has been detected, increase convergence thresholds
      if your molecule has a higher symmetry. Symmetry factor of 1.0 is
      used for the rotational entropy correction.

Note: Rotational entropy computed according to Herzberg
Infrared and Raman Spectra, Chapter V,1, Van Nostrand Reinhold, 1945
Point Group:  C1, Symmetry Number:   1
Rotational constants in cm-1:     0.022829     0.004134     0.004038

Vibrational entropy computed according to the QRRHO of S. Grimme
Chem.Eur.J. 2012 18 9955 using a reference frequency of 100.0 cm-1

-------
ENTROPY
-------

The entropy contributions are T*S = T*(S(el)+S(vib)+S(rot)+S(trans))
     S(el)   - electronic entropy
     S(vib)  - vibrational entropy
     S(rot)  - rotational entropy
     S(trans)- translational entropy
The entropies will be listed as multiplied by the temperature to get
units of energy

Electronic entropy                ...      0.00065446 Eh      0.41 kcal/mol
Vibrational entropy               ...      0.03549887 Eh     22.28 kcal/mol

                             ****ORCA TERMINATED NORMALLY****
TOTAL RUN TIME: 0 days 0 hours 20 minutes 17 seconds 572 msec
