                         Program Version 6.0.1  -  RELEASE   -
|  1> !r2scanh def2-TZVP freq d3 TightSCF SlowConv defgrid2
|  2>
|  3> %pal
|  4> nprocs 20
|  5> end
|  6>
|  7> %scf
|  8> MaxIter 1500
|  9> end
| 10>
| 11> %maxcore 8000
| 12>
| 13> !CPCM
| 14> %cpcm smd true
| 15> SMDsolvent "ACETONITRILE"
| 16> end
| 17>
| 18> * xyz -1 2
| 19> 6        4.643923000      0.307222000     -0.665588000
| 20> 8        5.253354000     -0.555945000     -1.304199000
| 21> 8        4.767523000      1.538713000     -0.609232000
| 22> 6        3.486001000     -0.229666000      0.255258000
| 23> 6        2.094213000      0.257248000     -0.210564000
| 24> 6        0.897003000     -0.567243000      0.343474000
| 25> 6       -0.470045000      0.170636000      0.226316000
| 26> 6       -1.713279000     -0.762390000      0.310358000
| 27> 6       -2.986786000     -0.010366000      0.518384000
| 28> 6       -4.040164000      0.205068000     -0.519913000
| 29> 9        3.445731000     -1.587951000      0.293484000
| 30> 9        3.666577000      0.188710000      1.538227000
| 31> 9        1.914024000      1.539959000      0.156301000
| 32> 9        2.048077000      0.187062000     -1.558293000
| 33> 9        0.816407000     -1.730074000     -0.326211000
| 34> 9        1.110906000     -0.834551000      1.643446000
| 35> 9       -0.564695000      1.064898000      1.225485000
| 36> 9       -0.537088000      0.826295000     -0.944652000
| 37> 9       -1.521728000     -1.618837000      1.337876000
| 38> 9       -1.804875000     -1.462669000     -0.836726000
| 39> 9       -3.296580000      0.301969000      1.755820000
| 40> 9       -4.746509000     -0.908197000     -0.774293000
| 41> 9       -4.895620000      1.138798000     -0.110729000
| 42> 9       -3.496173000      0.595641000     -1.675316000
| 43> *
| 44>
| 45>                          ****END OF INPUT****

CARTESIAN COORDINATES (ANGSTROEM)
---------------------------------
  C      4.643923    0.307222   -0.665588
  O      5.253354   -0.555945   -1.304199
  O      4.767523    1.538713   -0.609232
  C      3.486001   -0.229666    0.255258
  C      2.094213    0.257248   -0.210564
  C      0.897003   -0.567243    0.343474
  C     -0.470045    0.170636    0.226316
  C     -1.713279   -0.762390    0.310358
  C     -2.986786   -0.010366    0.518384
  C     -4.040164    0.205068   -0.519913
  F      3.445731   -1.587951    0.293484
  F      3.666577    0.188710    1.538227
  F      1.914024    1.539959    0.156301
  F      2.048077    0.187062   -1.558293
  F      0.816407   -1.730074   -0.326211
  F      1.110906   -0.834551    1.643446
  F     -0.564695    1.064898    1.225485
  F     -0.537088    0.826295   -0.944652
  F     -1.521728   -1.618837    1.337876
  F     -1.804875   -1.462669   -0.836726
  F     -3.296580    0.301969    1.755820
  F     -4.746509   -0.908197   -0.774293
  F     -4.895620    1.138798   -0.110729
  F     -3.496173    0.595641   -1.675316

 Total Charge           Charge          ....   -1
 Multiplicity           Mult            ....    2
 Number of Electrons    NEL             ....  191
 Basis Dimension        Dim             ....  744

ORBITAL ENERGIES
----------------
                 SPIN UP ORBITALS
  NO   OCC          E(Eh)            E(eV)
   0   1.0000     -24.742709      -673.2833
   1   1.0000     -24.726058      -672.8302
   2   1.0000     -24.725308      -672.8098
   3   1.0000     -24.724929      -672.7995
   4   1.0000     -24.724213      -672.7800
   5   1.0000     -24.723134      -672.7507
   6   1.0000     -24.723103      -672.7498
   7   1.0000     -24.721005      -672.6928
   8   1.0000     -24.720549      -672.6803
   9   1.0000     -24.718890      -672.6352
  10   1.0000     -24.710683      -672.4119
  11   1.0000     -24.710582      -672.4091
  12   1.0000     -24.686186      -671.7453
  13   1.0000     -24.685742      -671.7332
  14   1.0000     -19.049300      -518.3578
  15   1.0000     -19.047436      -518.3071
  16   1.0000     -10.436472      -283.9908
  17   1.0000     -10.382340      -282.5178
  18   1.0000     -10.377045      -282.3738
  19   1.0000     -10.373847      -282.2867
  20   1.0000     -10.359049      -281.8840
  21   1.0000     -10.322080      -280.8781
  22   1.0000     -10.307040      -280.4688
  23   1.0000     -10.233447      -278.4662
  24   1.0000      -1.347917       -36.6787
  25   1.0000      -1.331132       -36.2219
  26   1.0000      -1.313841       -35.7514
  27   1.0000      -1.306364       -35.5480
  28   1.0000      -1.299307       -35.3560
  29   1.0000      -1.296911       -35.2907
  30   1.0000      -1.269458       -34.5437
  31   1.0000      -1.262411       -34.3519
  32   1.0000      -1.258650       -34.2496
  33   1.0000      -1.253021       -34.0964
  34   1.0000      -1.252298       -34.0768
  35   1.0000      -1.248671       -33.9781
  36   1.0000      -1.238993       -33.7147
  37   1.0000      -1.210924       -32.9509
  38   1.0000      -1.028964       -27.9995
  39   1.0000      -0.944616       -25.7043
  40   1.0000      -0.851176       -23.1617
  41   1.0000      -0.823713       -22.4144
  42   1.0000      -0.788310       -21.4510
  43   1.0000      -0.749751       -20.4018
  44   1.0000      -0.706975       -19.2378
  45   1.0000      -0.670350       -18.2411
  46   1.0000      -0.660600       -17.9758
  47   1.0000      -0.629432       -17.1277
  48   1.0000      -0.625412       -17.0183
  49   1.0000      -0.623246       -16.9594
  50   1.0000      -0.613189       -16.6857
  51   1.0000      -0.609616       -16.5885
  52   1.0000      -0.608249       -16.5513
  53   1.0000      -0.593516       -16.1504
  54   1.0000      -0.590263       -16.0619
  55   1.0000      -0.584253       -15.8983
  56   1.0000      -0.573475       -15.6050
  57   1.0000      -0.568103       -15.4589
  58   1.0000      -0.563777       -15.3411
  59   1.0000      -0.554444       -15.0872
  60   1.0000      -0.539784       -14.6883
  61   1.0000      -0.522070       -14.2063
  62   1.0000      -0.491114       -13.3639
  63   1.0000      -0.489096       -13.3090
  64   1.0000      -0.485684       -13.2161
  65   1.0000      -0.480712       -13.0808
  66   1.0000      -0.477243       -12.9864
  67   1.0000      -0.473884       -12.8950
  68   1.0000      -0.470484       -12.8025
  69   1.0000      -0.466523       -12.6947
  70   1.0000      -0.460625       -12.5342
  71   1.0000      -0.455289       -12.3890
  72   1.0000      -0.451863       -12.2958
  73   1.0000      -0.449533       -12.2324
  74   1.0000      -0.446306       -12.1446
  75   1.0000      -0.441745       -12.0205
  76   1.0000      -0.439691       -11.9646
  77   1.0000      -0.435577       -11.8526
  78   1.0000      -0.431669       -11.7463
  79   1.0000      -0.427118       -11.6225
  80   1.0000      -0.423586       -11.5264
  81   1.0000      -0.420076       -11.4309
  82   1.0000      -0.419112       -11.4046
  83   1.0000      -0.417779       -11.3683
  84   1.0000      -0.410592       -11.1728
  85   1.0000      -0.403082       -10.9684
  86   1.0000      -0.397676       -10.8213
  87   1.0000      -0.391699       -10.6587
  88   1.0000      -0.387802       -10.5526
  89   1.0000      -0.375336       -10.2134
  90   1.0000      -0.364781        -9.9262
  91   1.0000      -0.327815        -8.9203
  92   1.0000      -0.266166        -7.2427
  93   1.0000      -0.241622        -6.5749
  94   1.0000      -0.225329        -6.1315
  95   1.0000      -0.223167        -6.0727
  96   0.0000      -0.001976        -0.0538
  97   0.0000       0.007701         0.2096
  98   0.0000       0.021983         0.5982
  99   0.0000       0.049697         1.3523
 100   0.0000       0.073711         2.0058

                 SPIN DOWN ORBITALS
  NO   OCC          E(Eh)            E(eV)
   0   1.0000     -24.737393      -673.1387
   1   1.0000     -24.726037      -672.8297
   2   1.0000     -24.725266      -672.8087
   3   1.0000     -24.724553      -672.7893
   4   1.0000     -24.723966      -672.7733
   5   1.0000     -24.722467      -672.7325
   6   1.0000     -24.722148      -672.7238
   7   1.0000     -24.721011      -672.6929
   8   1.0000     -24.720537      -672.6800
   9   1.0000     -24.717233      -672.5901
  10   1.0000     -24.710687      -672.4120
  11   1.0000     -24.710578      -672.4090
  12   1.0000     -24.686182      -671.7452
  13   1.0000     -24.685744      -671.7332
  14   1.0000     -19.049281      -518.3573
  15   1.0000     -19.047432      -518.3070
  16   1.0000     -10.437339      -284.0144
  17   1.0000     -10.383427      -282.5474
  18   1.0000     -10.376374      -282.3555
  19   1.0000     -10.373742      -282.2839
  20   1.0000     -10.359002      -281.8828
  21   1.0000     -10.322059      -280.8775
  22   1.0000     -10.289959      -280.0040
  23   1.0000     -10.233443      -278.4661
  24   1.0000      -1.346332       -36.6356
  25   1.0000      -1.330637       -36.2085
  26   1.0000      -1.312640       -35.7188
  27   1.0000      -1.305570       -35.5264
  28   1.0000      -1.297093       -35.2957
  29   1.0000      -1.291004       -35.1300
  30   1.0000      -1.269449       -34.5435
  31   1.0000      -1.261905       -34.3382
  32   1.0000      -1.257731       -34.2246
  33   1.0000      -1.251523       -34.0557
  34   1.0000      -1.250431       -34.0260
  35   1.0000      -1.248223       -33.9659
  36   1.0000      -1.238990       -33.7146
  37   1.0000      -1.210921       -32.9508
  38   1.0000      -1.028946       -27.9990
  39   1.0000      -0.944594       -25.7037
  40   1.0000      -0.838658       -22.8211
  41   1.0000      -0.815288       -22.1851
  42   1.0000      -0.782697       -21.2983
  43   1.0000      -0.748311       -20.3626
  44   1.0000      -0.703519       -19.1437
  45   1.0000      -0.664625       -18.0854
  46   1.0000      -0.660004       -17.9596
  47   1.0000      -0.627786       -17.0829
  48   1.0000      -0.621316       -16.9069
  49   1.0000      -0.621097       -16.9009
  50   1.0000      -0.612724       -16.6731
  51   1.0000      -0.607272       -16.5247
  52   1.0000      -0.605408       -16.4740
  53   1.0000      -0.592560       -16.1244
  54   1.0000      -0.589384       -16.0379
  55   1.0000      -0.582722       -15.8567
  56   1.0000      -0.572816       -15.5871
  57   1.0000      -0.566619       -15.4185
  58   1.0000      -0.563293       -15.3280
  59   1.0000      -0.553882       -15.0719
  60   1.0000      -0.539775       -14.6880
  61   1.0000      -0.491836       -13.3835
  62   1.0000      -0.489554       -13.3214
  63   1.0000      -0.487371       -13.2620
  64   1.0000      -0.483768       -13.1640
  65   1.0000      -0.478872       -13.0308
  66   1.0000      -0.476452       -12.9649
  67   1.0000      -0.471636       -12.8339
  68   1.0000      -0.468067       -12.7367
  69   1.0000      -0.465231       -12.6596
  70   1.0000      -0.459426       -12.5016
  71   1.0000      -0.454980       -12.3806
  72   1.0000      -0.451411       -12.2835
  73   1.0000      -0.446667       -12.1544
  74   1.0000      -0.444161       -12.0862
  75   1.0000      -0.441099       -12.0029
  76   1.0000      -0.437227       -11.8975
  77   1.0000      -0.434624       -11.8267
  78   1.0000      -0.431002       -11.7281
  79   1.0000      -0.426558       -11.6072
  80   1.0000      -0.423088       -11.5128
  81   1.0000      -0.419300       -11.4097
  82   1.0000      -0.418131       -11.3779
  83   1.0000      -0.417375       -11.3573
  84   1.0000      -0.409078       -11.1316
  85   1.0000      -0.401315       -10.9203
  86   1.0000      -0.397660       -10.8209
  87   1.0000      -0.389779       -10.6064
  88   1.0000      -0.387549       -10.5457
  89   1.0000      -0.375321       -10.2130
  90   1.0000      -0.362372        -9.8606
  91   1.0000      -0.325987        -8.8706
  92   1.0000      -0.241610        -6.5745
  93   1.0000      -0.225338        -6.1318
  94   1.0000      -0.223235        -6.0745
  95   0.0000      -0.121273        -3.3000
  96   0.0000       0.000372         0.0101
  97   0.0000       0.011407         0.3104
  98   0.0000       0.026904         0.7321
  99   0.0000       0.053290         1.4501

MULLIKEN ATOMIC CHARGES AND SPIN POPULATIONS
--------------------------------------------
   0 C :    0.212413    0.000176
   1 O :   -0.508676    0.000588
   2 O :   -0.523383    0.000108
   3 C :    0.343195    0.000567
   4 C :    0.300548    0.001941
   5 C :    0.321882    0.004618
   6 C :    0.301115    0.029659
   7 C :    0.386876   -0.020459
   8 C :    0.137284    0.846771
   9 C :    0.490228   -0.023510
  10 F :   -0.207322   -0.000007
  11 F :   -0.213848    0.000089
  12 F :   -0.179758    0.000019
  13 F :   -0.186633    0.000093
  14 F :   -0.172721   -0.000114
  15 F :   -0.172095    0.000232
  16 F :   -0.172139    0.000452
  17 F :   -0.172688    0.000264
  18 F :   -0.171647    0.016591
  19 F :   -0.170949    0.005984
  20 F :   -0.143312    0.093768
  21 F :   -0.170094    0.027972
  22 F :   -0.162527    0.004028
  23 F :   -0.165749    0.010170
Sum of atomic charges         :   -1.0000000

LOEWDIN ATOMIC CHARGES AND SPIN POPULATIONS
-------------------------------------------
   0 C :   -0.696578    0.000215
   1 O :   -0.047825    0.000519
   2 O :   -0.054947    0.000096
   3 C :   -0.451053    0.000711
   4 C :   -0.468681    0.001656
   5 C :   -0.469548    0.004664
   6 C :   -0.466579    0.022551
   7 C :   -0.492124    0.059325
   8 C :   -0.172095    0.669938
   9 C :   -0.682468    0.055549
  10 F :    0.170874   -0.000018
  11 F :    0.163136    0.000094
  12 F :    0.215692   -0.000063
  13 F :    0.209897    0.000096
  14 F :    0.221692   -0.000094
  15 F :    0.222153    0.000293
  16 F :    0.225812    0.001261
  17 F :    0.226950    0.000822
  18 F :    0.215852    0.016529
  19 F :    0.222754    0.006581
  20 F :    0.266605    0.110702
  21 F :    0.200839    0.030720
  22 F :    0.223905    0.005067
  23 F :    0.215737    0.012786

  Mayer bond orders larger than 0.100000
B(  0-C ,  1-O ) :   1.8537 B(  0-C ,  2-O ) :   1.8248 B(  0-C ,  3-C ) :   0.8377
B(  3-C ,  4-C ) :   0.9313 B(  3-C , 10-F ) :   1.0354 B(  3-C , 11-F ) :   1.0256
B(  4-C ,  5-C ) :   0.9189 B(  4-C , 12-F ) :   1.0632 B(  4-C , 13-F ) :   1.0574
B(  5-C ,  6-C ) :   0.9284 B(  5-C , 14-F ) :   1.0705 B(  5-C , 15-F ) :   1.0794
B(  6-C ,  7-C ) :   0.9357 B(  6-C , 16-F ) :   1.0734 B(  6-C , 17-F ) :   1.0773
B(  7-C ,  8-C ) :   0.9850 B(  7-C , 18-F ) :   1.0673 B(  7-C , 19-F ) :   1.0813
B(  8-C ,  9-C ) :   1.0454 B(  8-C , 20-F ) :   1.1221 B(  9-C , 21-F ) :   1.1181
B(  9-C , 22-F ) :   1.1284 B(  9-C , 23-F ) :   1.1195

Dispersion correction           -0.008096491
FINAL SINGLE POINT ENERGY     -1853.115433313863

DIPOLE MOMENT
-------------

Method             : SCF
Type of density    : Electron Density
Multiplicity       :   2
Irrep              :   0
Energy             : -1853.1073368231950553 Eh
Relativity type    :
Basis              : AO
                                X                 Y                 Z
Electronic contribution:    -16.951398168      -1.711881605       2.985119814
Nuclear contribution   :      8.546269261       0.978249869      -1.453834812
                        -----------------------------------------
Total Dipole Moment    :     -8.405128908      -0.733631736       1.531285002
                        -----------------------------------------
Magnitude (a.u.)       :      8.574919313
Magnitude (Debye)      :     21.795712761

VIBRATIONAL FREQUENCIES
-----------------------

Scaling factor for frequencies =  1.000000000  (already applied!)

     0:       0.00 cm**-1
     1:       0.00 cm**-1
     2:       0.00 cm**-1
     3:       0.00 cm**-1
     4:       0.00 cm**-1
     5:       0.00 cm**-1
     6:      19.09 cm**-1
     7:      24.11 cm**-1
     8:      30.68 cm**-1
     9:      41.69 cm**-1
    10:      43.67 cm**-1
    11:      58.24 cm**-1
    12:      63.39 cm**-1
    13:      72.75 cm**-1
    14:      99.47 cm**-1
    15:     128.06 cm**-1
    16:     149.59 cm**-1
    17:     167.58 cm**-1
    18:     192.97 cm**-1
    19:     197.31 cm**-1
    20:     210.18 cm**-1
    21:     229.79 cm**-1
    22:     249.90 cm**-1
    23:     251.34 cm**-1
    24:     262.24 cm**-1
    25:     271.22 cm**-1
    26:     306.56 cm**-1
    27:     315.03 cm**-1
    28:     326.87 cm**-1
    29:     350.90 cm**-1
    30:     355.90 cm**-1
    31:     366.71 cm**-1
    32:     372.49 cm**-1
    33:     376.37 cm**-1
    34:     409.94 cm**-1
    35:     437.34 cm**-1
    36:     472.50 cm**-1
    37:     499.77 cm**-1
    38:     540.79 cm**-1
    39:     553.20 cm**-1
    40:     558.08 cm**-1
    41:     570.88 cm**-1
    42:     585.50 cm**-1
    43:     609.41 cm**-1
    44:     636.78 cm**-1
    45:     662.57 cm**-1
    46:     679.98 cm**-1
    47:     723.74 cm**-1
    48:     726.52 cm**-1
    49:     780.09 cm**-1
    50:     804.04 cm**-1
    51:     889.48 cm**-1
    52:    1011.28 cm**-1
    53:    1077.80 cm**-1
    54:    1098.41 cm**-1
    55:    1106.86 cm**-1
    56:    1129.93 cm**-1
    57:    1137.72 cm**-1
    58:    1139.30 cm**-1
    59:    1155.00 cm**-1
    60:    1163.57 cm**-1
    61:    1170.64 cm**-1
    62:    1177.72 cm**-1
    63:    1181.10 cm**-1
    64:    1221.53 cm**-1
    65:    1233.14 cm**-1
    66:    1287.05 cm**-1
    67:    1311.39 cm**-1
    68:    1354.91 cm**-1
    69:    1392.19 cm**-1
    70:    1440.94 cm**-1
    71:    1758.85 cm**-1

IR SPECTRUM
-----------

 Mode   freq       eps      Int      T**2         TX        TY        TZ
       cm**-1   L/(mol*cm) km/mol    a.u.
----------------------------------------------------------------------------
  6:     19.09   0.000238    1.20  0.003896  (-0.013150  0.059198 -0.014802)
  7:     24.11   0.000261    1.32  0.003377  (-0.026175  0.032389 -0.040531)
  8:     30.68   0.000623    3.15  0.006342  ( 0.017924  0.034548  0.069478)
  9:     41.69   0.000003    0.01  0.000021  ( 0.002035  0.002983 -0.002901)
 10:     43.67   0.000112    0.57  0.000800  (-0.012276 -0.023659 -0.009445)
 11:     58.24   0.000307    1.55  0.001643  ( 0.012328 -0.038573 -0.001848)
 12:     63.39   0.000038    0.19  0.000186  ( 0.001712  0.010403  0.008660)
 13:     72.75   0.000345    1.74  0.001479  ( 0.021923 -0.021380  0.023258)
 14:     99.47   0.000413    2.09  0.001295  ( 0.026170 -0.011010  0.022108)
 15:    128.06   0.001135    5.73  0.002765  (-0.041688 -0.007038 -0.031269)
 16:    149.59   0.000212    1.07  0.000443  (-0.018590  0.008976  0.004108)
 17:    167.58   0.001214    6.13  0.002260  (-0.029902 -0.003589  0.036786)
 18:    192.97   0.000459    2.32  0.000743  ( 0.027114  0.002761 -0.000409)
 19:    197.31   0.001751    8.85  0.002769  ( 0.012060  0.020466  0.046951)
 20:    210.18   0.000130    0.66  0.000194  ( 0.007332  0.010174 -0.006022)
 21:    229.79   0.000253    1.28  0.000344  ( 0.014634 -0.011185 -0.002184)
 22:    249.90   0.000013    0.06  0.000016  (-0.000174  0.002322  0.003211)
 23:    251.34   0.000088    0.45  0.000110  ( 0.006732 -0.003411 -0.007264)
 24:    262.24   0.000275    1.39  0.000328  (-0.009277  0.000341 -0.015542)
 25:    271.22   0.000431    2.18  0.000496  (-0.021567  0.003307 -0.004459)
 26:    306.56   0.000385    1.94  0.000392  ( 0.017327 -0.007933 -0.005337)
 27:    315.03   0.000122    0.62  0.000121  (-0.007393  0.008111  0.000828)
 28:    326.87   0.000042    0.21  0.000040  ( 0.002068  0.000171 -0.005993)
 29:    350.90   0.000505    2.55  0.000449  ( 0.015874  0.000494  0.014035)
 30:    355.90   0.000064    0.32  0.000056  (-0.001396 -0.001791 -0.007108)
 31:    366.71   0.000187    0.94  0.000159  ( 0.012534 -0.001411  0.000148)
 32:    372.49   0.000619    3.13  0.000519  ( 0.022480  0.000918  0.003551)
 33:    376.37   0.000005    0.03  0.000004  (-0.001801 -0.000947  0.000397)
 34:    409.94   0.000874    4.42  0.000665  (-0.025464 -0.003710 -0.001779)
 35:    437.34   0.001508    7.62  0.001076  ( 0.032693 -0.002635  0.000561)
 36:    472.50   0.000857    4.33  0.000566  (-0.012187 -0.011913 -0.016608)
 37:    499.77   0.006170   31.18  0.003852  (-0.060110  0.015424  0.001093)
 38:    540.79   0.004049   20.46  0.002337  ( 0.046042 -0.002423  0.014526)
 39:    553.20   0.009478   47.90  0.005346  (-0.073034  0.003504  0.000370)
 40:    558.08   0.004090   20.67  0.002287  ( 0.026400 -0.032886  0.022555)
 41:    570.88   0.004851   24.52  0.002652  ( 0.037283  0.031435 -0.016544)
 42:    585.50   0.001074    5.43  0.000572  ( 0.012827 -0.017483 -0.010107)
 43:    609.41   0.000673    3.40  0.000344  (-0.015002 -0.010852  0.001269)
 44:    636.78   0.001535    7.76  0.000752  ( 0.016385 -0.012888  0.017821)
 45:    662.57   0.048481  245.00  0.022834  ( 0.150266  0.015446 -0.003999)
 46:    679.98   0.000372    1.88  0.000171  ( 0.008700 -0.009302  0.002935)
 47:    723.74   0.001359    6.87  0.000586  (-0.003742 -0.009898  0.021768)
 48:    726.52   0.003412   17.25  0.001466  (-0.028460  0.013814 -0.021563)
 49:    780.09   0.002357   11.91  0.000943  (-0.027279  0.000940  0.014066)
 50:    804.04   0.019239   97.23  0.007467  (-0.054263 -0.028272  0.061020)
 51:    889.48   0.003973   20.08  0.001394  (-0.036847  0.004169 -0.004347)
 52:   1011.28   0.019728   99.70  0.006088  ( 0.051715 -0.031066  0.049478)
 53:   1077.80   0.008497   42.94  0.002460  (-0.040425 -0.023300 -0.016824)
 54:   1098.41   0.084823  428.66  0.024099  (-0.056408 -0.144362  0.008753)
 55:   1106.86   0.053290  269.31  0.015025  ( 0.013184  0.098478  0.071783)
 56:   1129.93   0.048989  247.57  0.013530  ( 0.020863 -0.069719  0.090740)
 57:   1137.72   0.058705  296.67  0.016102  ( 0.020326 -0.121446  0.030653)
 58:   1139.30   0.036436  184.14  0.009980  (-0.017994 -0.088705  0.042284)
 59:   1155.00   0.024070  121.64  0.006503  (-0.003850 -0.078109 -0.019682)
 60:   1163.57   0.014796   74.77  0.003968  (-0.005156 -0.009637  0.062039)
 61:   1170.64   0.158436  800.67  0.042235  ( 0.031296  0.050295  0.196789)
 62:   1177.72   0.015017   75.89  0.003979  (-0.000900  0.039989  0.048778)
 63:   1181.10   0.113928  575.74  0.030101  ( 0.067137 -0.057102 -0.149443)
 64:   1221.53   0.014958   75.59  0.003821  ( 0.001655 -0.002218  0.061756)
 65:   1233.14   0.000885    4.47  0.000224  (-0.008682 -0.011979 -0.002244)
 66:   1287.05   0.003445   17.41  0.000835  ( 0.014110 -0.018669 -0.016963)
 67:   1311.39   0.007724   39.03  0.001838  ( 0.037368  0.020137 -0.006014)
 68:   1354.91   0.039100  197.60  0.009006  ( 0.062701 -0.055667  0.044444)
 69:   1392.19   0.058022  293.22  0.013006  ( 0.103807  0.022505 -0.041514)
 70:   1440.94   0.015131   76.46  0.003277  ( 0.051098 -0.013642 -0.021902)
 71:   1758.85   0.160026  808.71  0.028393  ( 0.037831 -0.155592 -0.052466)

--------------------------
THERMOCHEMISTRY AT 298.15K
--------------------------

Temperature         ...   298.15 K
Pressure            ...     1.00 atm
Total Mass          ...   394.06 AMU
Quasi RRHO          ...     True
Cut-Off Frequency   ...     1.00 cm^-1

Throughout the following assumptions are being made:
  (1) The electronic state is orbitally nondegenerate
      but the spin degeneracy is treated
  (2) There are no thermally accessible electronically excited states
  (3) Hindered rotations indicated by low frequency modes are not
      treated as such but are treated as vibrations and this may
      cause some error
  (4) All equations used are the standard statistical mechanics
      equations for an ideal gas
  (5) All vibrations are strictly harmonic

freq.      19.09  E(vib)   ...       0.57
freq.      24.11  E(vib)   ...       0.56
freq.      30.68  E(vib)   ...       0.55
freq.      41.69  E(vib)   ...       0.53
freq.      43.67  E(vib)   ...       0.53
freq.      58.24  E(vib)   ...       0.51
freq.      63.39  E(vib)   ...       0.51
freq.      72.75  E(vib)   ...       0.49
freq.      99.47  E(vib)   ...       0.46
freq.     128.06  E(vib)   ...       0.43
freq.     149.59  E(vib)   ...       0.40
freq.     167.58  E(vib)   ...       0.38
freq.     192.97  E(vib)   ...       0.36
freq.     197.31  E(vib)   ...       0.35
freq.     210.18  E(vib)   ...       0.34
freq.     229.79  E(vib)   ...       0.32
freq.     249.90  E(vib)   ...       0.31
freq.     251.34  E(vib)   ...       0.30
freq.     262.24  E(vib)   ...       0.29
freq.     271.22  E(vib)   ...       0.29
freq.     306.56  E(vib)   ...       0.26
freq.     315.03  E(vib)   ...       0.25
freq.     326.87  E(vib)   ...       0.24
freq.     350.90  E(vib)   ...       0.23
freq.     355.90  E(vib)   ...       0.22
freq.     366.71  E(vib)   ...       0.22
freq.     372.49  E(vib)   ...       0.21
freq.     376.37  E(vib)   ...       0.21
freq.     409.94  E(vib)   ...       0.19
freq.     437.34  E(vib)   ...       0.17
freq.     472.50  E(vib)   ...       0.15
freq.     499.77  E(vib)   ...       0.14
freq.     540.79  E(vib)   ...       0.12
freq.     553.20  E(vib)   ...       0.12
freq.     558.08  E(vib)   ...       0.12
freq.     570.88  E(vib)   ...       0.11
freq.     585.50  E(vib)   ...       0.11
freq.     609.41  E(vib)   ...       0.10
freq.     636.78  E(vib)   ...       0.09
freq.     662.57  E(vib)   ...       0.08
freq.     679.98  E(vib)   ...       0.08
freq.     723.74  E(vib)   ...       0.06
freq.     726.52  E(vib)   ...       0.06
freq.     780.09  E(vib)   ...       0.05
freq.     804.04  E(vib)   ...       0.05
freq.     889.48  E(vib)   ...       0.04
freq.    1011.28  E(vib)   ...       0.02
freq.    1077.80  E(vib)   ...       0.02
freq.    1098.41  E(vib)   ...       0.02
freq.    1106.86  E(vib)   ...       0.02
freq.    1129.93  E(vib)   ...       0.01
freq.    1137.72  E(vib)   ...       0.01
freq.    1139.30  E(vib)   ...       0.01
freq.    1155.00  E(vib)   ...       0.01
freq.    1163.57  E(vib)   ...       0.01
freq.    1170.64  E(vib)   ...       0.01
freq.    1177.72  E(vib)   ...       0.01
freq.    1181.10  E(vib)   ...       0.01
freq.    1221.53  E(vib)   ...       0.01
freq.    1233.14  E(vib)   ...       0.01
freq.    1287.05  E(vib)   ...       0.01
freq.    1311.39  E(vib)   ...       0.01
freq.    1354.91  E(vib)   ...       0.01
freq.    1392.19  E(vib)   ...       0.00
freq.    1440.94  E(vib)   ...       0.00
freq.    1758.85  E(vib)   ...       0.00

------------
INNER ENERGY
------------

The inner energy is: U= E(el) + E(ZPE) + E(vib) + E(rot) + E(trans)
    E(el)   - is the total energy from the electronic structure calculation
              = E(kin-el) + E(nuc-el) + E(el-el) + E(nuc-nuc)
    E(ZPE)  - the the zero temperature vibrational energy from the frequency calculation
    E(vib)  - the the finite temperature correction to E(ZPE) due to population
              of excited vibrational states
    E(rot)  - is the rotational thermal energy
    E(trans)- is the translational thermal energy

Summary of contributions to the inner energy U:
Electronic energy                ...  -1853.11543331 Eh
Zero point energy                ...      0.09391523 Eh      58.93 kcal/mol
Thermal vibrational correction   ...      0.01975689 Eh      12.40 kcal/mol
Thermal rotational correction    ...      0.00141627 Eh       0.89 kcal/mol
Thermal translational correction ...      0.00141627 Eh       0.89 kcal/mol
-----------------------------------------------------------------------
Total thermal energy                  -1852.99892865 Eh

Summary of corrections to the electronic energy:
(perhaps to be used in another calculation)
Total thermal correction                  0.02258943 Eh      14.18 kcal/mol
Non-thermal (ZPE) correction              0.09391523 Eh      58.93 kcal/mol
-----------------------------------------------------------------------
Total correction                          0.11650466 Eh      73.11 kcal/mol

--------
ENTHALPY
--------

The enthalpy is H = U + kB*T
                kB is Boltzmann's constant
Total thermal energy              ...  -1852.99892865 Eh
Thermal Enthalpy correction       ...      0.00094421 Eh       0.59 kcal/mol
-----------------------------------------------------------------------
Total Enthalpy                    ...  -1852.99798445 Eh

Note: Only C1 symmetry has been detected, increase convergence thresholds
      if your molecule has a higher symmetry. Symmetry factor of 1.0 is
      used for the rotational entropy correction.

Note: Rotational entropy computed according to Herzberg
Infrared and Raman Spectra, Chapter V,1, Van Nostrand Reinhold, 1945
Point Group:  C1, Symmetry Number:   1
Rotational constants in cm-1:     0.020965     0.004133     0.004054

Vibrational entropy computed according to the QRRHO of S. Grimme
Chem.Eur.J. 2012 18 9955 using a reference frequency of 100.0 cm-1

-------
ENTROPY
-------

The entropy contributions are T*S = T*(S(el)+S(vib)+S(rot)+S(trans))
     S(el)   - electronic entropy
     S(vib)  - vibrational entropy
     S(rot)  - rotational entropy
     S(trans)- translational entropy
The entropies will be listed as multiplied by the temperature to get
units of energy

Electronic entropy                ...      0.00065446 Eh      0.41 kcal/mol
Vibrational entropy               ...      0.03591053 Eh     22.53 kcal/mol
Rotational entropy                ...      0.01652692 Eh     10.37 kcal/mol
Translational entropy             ...      0.02081341 Eh     13.06 kcal/mol
-----------------------------------------------------------------------

                             ****ORCA TERMINATED NORMALLY****
TOTAL RUN TIME: 0 days 0 hours 22 minutes 45 seconds 525 msec
