                         Program Version 6.0.1  -  RELEASE   -
|  1> !B3LYP def2-TZVP freq d3 TightSCF SlowConv defgrid2
|  2>
|  3> %pal
|  4> nprocs 20
|  5> end
|  6>
|  7> %scf
|  8> MaxIter 1500
|  9> end
| 10>
| 11> %maxcore 8000
| 12>
| 13> !CPCM
| 14> %cpcm smd true
| 15> SMDsolvent "ACETONITRILE"
| 16> end
| 17>
| 18> * xyz -1 1
| 19> 6        7.418057000     27.544921000      3.038601000
| 20> 6        6.561153000     26.327061000      2.561106000
| 21> 6        7.405969000     25.080944000      2.130351000
| 22> 6        6.563991000     23.756975000      2.054407000
| 23> 6        7.240136000     22.645392000      1.176553000
| 24> 6        6.683882000     21.206524000      1.449355000
| 25> 6        6.972427000     20.170598000      0.323107000
| 26> 6        6.818648000     18.688986000      0.837739000
| 27> 9        8.388493000     27.809862000      2.160435000
| 28> 9        7.963387000     27.304424000      4.230417000
| 29> 9        6.627486000     28.615075000      3.139954000
| 30> 9        5.736146000     25.986896000      3.571368000
| 31> 9        5.822876000     26.732476000      1.511959000
| 32> 9        7.946636000     25.340905000      0.923270000
| 33> 9        8.403174000     24.900333000      3.018839000
| 34> 9        6.397831000     23.296039000      3.309830000
| 35> 9        5.351958000     24.035903000      1.533641000
| 36> 9        7.039541000     22.961545000     -0.119715000
| 37> 9        8.567605000     22.649520000      1.421671000
| 38> 9        7.245728000     20.757342000      2.597407000
| 39> 9        5.348646000     21.289776000      1.639096000
| 40> 9        6.109349000     20.410302000     -0.703867000
| 41> 9        8.226607000     20.405155000     -0.151374000
| 42> 8        7.877138000     18.069393000      1.020731000
| 43> 8        5.641919000     18.328037000      1.007619000
| 44> 8        3.071988000     19.210601000      0.405220000
| 45> 1        2.613362000     18.362625000      0.442175000
| 46> 1        4.007190000     18.993225000      0.598889000
| 47> 1        9.548171000     18.713452000      1.291504000
| 48> 8       10.453921000     18.979179000      1.555231000
| 49> 1       10.650800000     18.437376000      2.328701000
| 50> *
| 51>
| 52>                          ****END OF INPUT****

CARTESIAN COORDINATES (ANGSTROEM)
---------------------------------
  C      7.418057   27.544921    3.038601
  C      6.561153   26.327061    2.561106
  C      7.405969   25.080944    2.130351
  C      6.563991   23.756975    2.054407
  C      7.240136   22.645392    1.176553
  C      6.683882   21.206524    1.449355
  C      6.972427   20.170598    0.323107
  C      6.818648   18.688986    0.837739
  F      8.388493   27.809862    2.160435
  F      7.963387   27.304424    4.230417
  F      6.627486   28.615075    3.139954
  F      5.736146   25.986896    3.571368
  F      5.822876   26.732476    1.511959
  F      7.946636   25.340905    0.923270
  F      8.403174   24.900333    3.018839
  F      6.397831   23.296039    3.309830
  F      5.351958   24.035903    1.533641
  F      7.039541   22.961545   -0.119715
  F      8.567605   22.649520    1.421671
  F      7.245728   20.757342    2.597407
  F      5.348646   21.289776    1.639096
  F      6.109349   20.410302   -0.703867
  F      8.226607   20.405155   -0.151374
  O      7.877138   18.069393    1.020731
  O      5.641919   18.328037    1.007619
  O      3.071988   19.210601    0.405220
  H      2.613362   18.362625    0.442175
  H      4.007190   18.993225    0.598889
  H      9.548171   18.713452    1.291504
  O     10.453921   18.979179    1.555231
  H     10.650800   18.437376    2.328701

 Total Charge           Charge          ....   -1
 Multiplicity           Mult            ....    1
 Number of Electrons    NEL             ....  220
 Basis Dimension        Dim             ....  861

ORBITAL ENERGIES
----------------

  NO   OCC          E(Eh)            E(eV)
   0   2.0000     -24.744757      -673.3391
   1   2.0000     -24.743787      -673.3127
   2   2.0000     -24.743759      -673.3119
   3   2.0000     -24.743408      -673.3023
   4   2.0000     -24.743398      -673.3021
   5   2.0000     -24.743223      -673.2973
   6   2.0000     -24.742272      -673.2714
   7   2.0000     -24.741169      -673.2414
   8   2.0000     -24.741044      -673.2380
   9   2.0000     -24.736801      -673.1226
  10   2.0000     -24.736229      -673.1070
  11   2.0000     -24.727803      -672.8777
  12   2.0000     -24.727498      -672.8694
  13   2.0000     -24.706593      -672.3006
  14   2.0000     -24.705933      -672.2826
  15   2.0000     -19.089177      -519.4429
  16   2.0000     -19.088754      -519.4314
  17   2.0000     -19.083935      -519.3003
  18   2.0000     -19.082936      -519.2731
  19   2.0000     -10.461178      -284.6631
  20   2.0000     -10.408496      -283.2296
  21   2.0000     -10.407184      -283.1939
  22   2.0000     -10.405956      -283.1604
  23   2.0000     -10.400098      -283.0010
  24   2.0000     -10.387040      -282.6457
  25   2.0000     -10.355012      -281.7742
  26   2.0000     -10.275124      -279.6003
  27   2.0000      -1.353654       -36.8348
  28   2.0000      -1.331101       -36.2211
  29   2.0000      -1.316485       -35.8234
  30   2.0000      -1.307817       -35.5875
  31   2.0000      -1.305085       -35.5132
  32   2.0000      -1.295939       -35.2643
  33   2.0000      -1.272156       -34.6171
  34   2.0000      -1.267168       -34.4814
  35   2.0000      -1.260787       -34.3078
  36   2.0000      -1.260372       -34.2965
  37   2.0000      -1.254084       -34.1254
  38   2.0000      -1.250350       -34.0237
  39   2.0000      -1.247238       -33.9391
  40   2.0000      -1.238069       -33.6896
  41   2.0000      -1.214185       -33.0397
  42   2.0000      -1.047566       -28.5057
  43   2.0000      -0.976100       -26.5610
  44   2.0000      -0.973160       -26.4810
  45   2.0000      -0.961162       -26.1546
  46   2.0000      -0.847516       -23.0621
  47   2.0000      -0.827055       -22.5053
  48   2.0000      -0.798806       -21.7366
  49   2.0000      -0.761943       -20.7335
  50   2.0000      -0.720312       -19.6007
  51   2.0000      -0.691100       -18.8058
  52   2.0000      -0.674332       -18.3495
  53   2.0000      -0.651630       -17.7318
  54   2.0000      -0.646801       -17.6003
  55   2.0000      -0.638438       -17.3728
  56   2.0000      -0.631442       -17.1824
  57   2.0000      -0.627521       -17.0757
  58   2.0000      -0.625213       -17.0129
  59   2.0000      -0.613389       -16.6912
  60   2.0000      -0.609992       -16.5987
  61   2.0000      -0.606355       -16.4998
  62   2.0000      -0.598201       -16.2779
  63   2.0000      -0.588002       -16.0004
  64   2.0000      -0.586122       -15.9492
  65   2.0000      -0.579951       -15.7813
  66   2.0000      -0.574465       -15.6320
  67   2.0000      -0.558408       -15.1951
  68   2.0000      -0.518307       -14.1039
  69   2.0000      -0.514419       -13.9980
  70   2.0000      -0.513770       -13.9804
  71   2.0000      -0.508862       -13.8468
  72   2.0000      -0.504939       -13.7401
  73   2.0000      -0.500869       -13.6293
  74   2.0000      -0.498988       -13.5782
  75   2.0000      -0.497692       -13.5429
  76   2.0000      -0.494449       -13.4546
  77   2.0000      -0.487945       -13.2777
  78   2.0000      -0.483904       -13.1677
  79   2.0000      -0.481667       -13.1068
  80   2.0000      -0.478902       -13.0316
  81   2.0000      -0.473257       -12.8780
  82   2.0000      -0.471430       -12.8283
  83   2.0000      -0.464372       -12.6362
  84   2.0000      -0.463647       -12.6165
  85   2.0000      -0.462155       -12.5759
  86   2.0000      -0.453883       -12.3508
  87   2.0000      -0.452869       -12.3232
  88   2.0000      -0.450139       -12.2489
  89   2.0000      -0.446129       -12.1398
  90   2.0000      -0.444806       -12.1038
  91   2.0000      -0.442593       -12.0436
  92   2.0000      -0.441693       -12.0191
  93   2.0000      -0.437608       -11.9079
  94   2.0000      -0.436904       -11.8888
  95   2.0000      -0.431774       -11.7492
  96   2.0000      -0.426038       -11.5931
  97   2.0000      -0.422285       -11.4910
  98   2.0000      -0.417303       -11.3554
  99   2.0000      -0.406048       -11.0491
 100   2.0000      -0.403884       -10.9902
 101   2.0000      -0.377385       -10.2692
 102   2.0000      -0.358480        -9.7547
 103   2.0000      -0.356440        -9.6992
 104   2.0000      -0.345680        -9.4064
 105   2.0000      -0.287401        -7.8206
 106   2.0000      -0.285485        -7.7684
 107   2.0000      -0.270493        -7.3605
 108   2.0000      -0.260452        -7.0873
 109   2.0000      -0.259493        -7.0612
 110   0.0000      -0.011831        -0.3219
 111   0.0000       0.002874         0.0782
 112   0.0000       0.019646         0.5346
 113   0.0000       0.044285         1.2050
 114   0.0000       0.053230         1.4485

MULLIKEN ATOMIC CHARGES
-----------------------
   0 C :    0.476063
   1 C :    0.324541
   2 C :    0.313000
   3 C :    0.331819
   4 C :    0.337273
   5 C :    0.301128
   6 C :    0.349121
   7 C :    0.245639
   8 F :   -0.155286
   9 F :   -0.152726
  10 F :   -0.152436
  11 F :   -0.165757
  12 F :   -0.162577
  13 F :   -0.168231
  14 F :   -0.167609
  15 F :   -0.168993
  16 F :   -0.169305
  17 F :   -0.173083
  18 F :   -0.174637
  19 F :   -0.186580
  20 F :   -0.181004
  21 F :   -0.208163
  22 F :   -0.204553
  23 O :   -0.488490
  24 O :   -0.501767
  25 O :   -0.726169
  26 H :    0.327592
  27 H :    0.350850
  28 H :    0.347239
  29 O :   -0.724720
  30 H :    0.327823
Sum of atomic charges:   -1.0000000

LOEWDIN ATOMIC CHARGES
----------------------
   0 C :   -0.663485
   1 C :   -0.463554
   2 C :   -0.456582
   3 C :   -0.454321
   4 C :   -0.453355
   5 C :   -0.454125
   6 C :   -0.441250
   7 C :   -0.648844
   8 F :    0.224824
   9 F :    0.226906
  10 F :    0.225958
  11 F :    0.223619
  12 F :    0.224933
  13 F :    0.224785
  14 F :    0.224512
  15 F :    0.223901
  16 F :    0.222887
  17 F :    0.219202
  18 F :    0.218141
  19 F :    0.208080
  20 F :    0.214842
  21 F :    0.171465
  22 F :    0.179694
  23 O :   -0.025331
  24 O :   -0.030235
  25 O :   -0.367201
  26 H :    0.156739
  27 H :    0.139277
  28 H :    0.139289
  29 O :   -0.367194
  30 H :    0.156423

  Mayer bond orders larger than 0.100000
B(  0-C ,  1-C ) :   0.9701 B(  0-C ,  8-F ) :   1.1430 B(  0-C ,  9-F ) :   1.1559
B(  0-C , 10-F ) :   1.1490 B(  1-C ,  2-C ) :   0.9263 B(  1-C , 11-F ) :   1.0873
B(  1-C , 12-F ) :   1.0974 B(  2-C ,  3-C ) :   0.9346 B(  2-C , 13-F ) :   1.0814
B(  2-C , 14-F ) :   1.0882 B(  3-C ,  4-C ) :   0.9381 B(  3-C , 15-F ) :   1.0814
B(  3-C , 16-F ) :   1.0801 B(  4-C ,  5-C ) :   0.9285 B(  4-C , 17-F ) :   1.0785
B(  4-C , 18-F ) :   1.0727 B(  5-C ,  6-C ) :   0.9078 B(  5-C , 19-F ) :   1.0655
B(  5-C , 20-F ) :   1.0773 B(  6-C ,  7-C ) :   0.8973 B(  6-C , 21-F ) :   1.0438
B(  6-C , 22-F ) :   1.0445 B(  7-C , 23-O ) :   1.7575 B(  7-C , 24-O ) :   1.7347
B( 23-O , 28-H ) :   0.1097 B( 24-O , 27-H ) :   0.1049 B( 25-O , 26-H ) :   0.9015
B( 25-O , 27-H ) :   0.8281 B( 28-H , 29-O ) :   0.8272 B( 29-O , 30-H ) :   0.9014

Dispersion correction           -0.050224839
FINAL SINGLE POINT ENERGY     -2106.085300813954

DIPOLE MOMENT
-------------

Method             : SCF
Type of density    : Electron Density
Multiplicity       :   1
Irrep              :   0
Energy             : -2106.0350759750622274 Eh
Relativity type    :
Basis              : AO
                                X                 Y                 Z
Electronic contribution:      1.848480173      38.544355607       6.374623370
Nuclear contribution   :     -1.669786604     -31.684003524      -4.405486358
                        -----------------------------------------
Total Dipole Moment    :      0.178693569       6.860352083       1.969137012
                        -----------------------------------------
Magnitude (a.u.)       :      7.139598215
Magnitude (Debye)      :     18.147416463

VIBRATIONAL FREQUENCIES
-----------------------

Scaling factor for frequencies =  1.000000000  (already applied!)

     0:       0.00 cm**-1
     1:       0.00 cm**-1
     2:       0.00 cm**-1
     3:       0.00 cm**-1
     4:       0.00 cm**-1
     5:       0.00 cm**-1
     6:      15.52 cm**-1
     7:      20.10 cm**-1
     8:      23.25 cm**-1
     9:      30.34 cm**-1
    10:      33.97 cm**-1
    11:      40.90 cm**-1
    12:      42.72 cm**-1
    13:      47.84 cm**-1
    14:      57.55 cm**-1
    15:      65.29 cm**-1
    16:      67.86 cm**-1
    17:      69.54 cm**-1
    18:      74.95 cm**-1
    19:      83.93 cm**-1
    20:     118.74 cm**-1
    21:     133.02 cm**-1
    22:     156.32 cm**-1
    23:     166.56 cm**-1
    24:     189.34 cm**-1
    25:     195.17 cm**-1
    26:     203.84 cm**-1
    27:     204.95 cm**-1
    28:     214.38 cm**-1
    29:     235.98 cm**-1
    30:     245.80 cm**-1
    31:     256.03 cm**-1
    32:     259.21 cm**-1
    33:     271.65 cm**-1
    34:     288.61 cm**-1
    35:     304.03 cm**-1
    36:     311.76 cm**-1
    37:     334.61 cm**-1
    38:     347.36 cm**-1
    39:     360.73 cm**-1
    40:     363.95 cm**-1
    41:     368.99 cm**-1
    42:     369.69 cm**-1
    43:     377.60 cm**-1
    44:     395.32 cm**-1
    45:     404.06 cm**-1
    46:     415.77 cm**-1
    47:     465.60 cm**-1
    48:     512.38 cm**-1
    49:     524.39 cm**-1
    50:     539.59 cm**-1
    51:     554.76 cm**-1
    52:     556.51 cm**-1
    53:     577.68 cm**-1
    54:     596.04 cm**-1
    55:     609.04 cm**-1
    56:     639.64 cm**-1
    57:     652.34 cm**-1
    58:     662.44 cm**-1
    59:     681.39 cm**-1
    60:     693.54 cm**-1
    61:     719.63 cm**-1
    62:     727.40 cm**-1
    63:     768.76 cm**-1
    64:     807.87 cm**-1
    65:     877.27 cm**-1
    66:    1001.92 cm**-1
    67:    1091.64 cm**-1
    68:    1109.18 cm**-1
    69:    1117.26 cm**-1
    70:    1122.06 cm**-1
    71:    1128.63 cm**-1
    72:    1137.78 cm**-1
    73:    1147.65 cm**-1
    74:    1150.58 cm**-1
    75:    1156.16 cm**-1
    76:    1160.56 cm**-1
    77:    1170.72 cm**-1
    78:    1184.44 cm**-1
    79:    1195.19 cm**-1
    80:    1217.56 cm**-1
    81:    1250.37 cm**-1
    82:    1266.72 cm**-1
    83:    1289.49 cm**-1
    84:    1343.92 cm**-1
    85:    1393.45 cm**-1
    86:    1648.87 cm**-1
    87:    1654.76 cm**-1
    88:    1712.52 cm**-1
    89:    3484.45 cm**-1
    90:    3505.03 cm**-1
    91:    3800.69 cm**-1
    92:    3801.94 cm**-1

IR SPECTRUM
-----------

 Mode   freq       eps      Int      T**2         TX        TY        TZ
       cm**-1   L/(mol*cm) km/mol    a.u.
----------------------------------------------------------------------------
  6:     15.52   0.007871   39.78  0.158239  (-0.126733  0.173694  0.334676)
  7:     20.10   0.004696   23.73  0.072911  ( 0.023648 -0.040305  0.265946)
  8:     23.25   0.000039    0.20  0.000524  ( 0.016282 -0.012417  0.010226)
  9:     30.34   0.006830   34.52  0.070259  ( 0.044270 -0.061759 -0.253939)
 10:     33.97   0.007687   38.85  0.070612  (-0.055862  0.043693  0.256091)
 11:     40.90   0.002783   14.06  0.021232  (-0.006905 -0.053596  0.135319)
 12:     42.72   0.001929    9.75  0.014094  ( 0.005868 -0.086013 -0.081619)
 13:     47.84   0.004190   21.18  0.027333  ( 0.086210 -0.051175 -0.131463)
 14:     57.55   0.010135   51.22  0.054959  ( 0.128411 -0.132771 -0.144368)
 15:     65.29   0.002645   13.37  0.012641  (-0.031632  0.043783  0.098607)
 16:     67.86   0.000412    2.08  0.001894  ( 0.003163  0.024768 -0.035652)
 17:     69.54   0.013411   67.77  0.060182  (-0.093602  0.190526  0.122967)
 18:     74.95   0.000173    0.87  0.000720  ( 0.017178  0.019613  0.006342)
 19:     83.93   0.004000   20.21  0.014872  ( 0.004658 -0.069062 -0.100404)
 20:    118.74   0.000555    2.81  0.001459  (-0.001503  0.027449  0.026516)
 21:    133.02   0.000137    0.69  0.000323  (-0.000971  0.015794 -0.008494)
 22:    156.32   0.000052    0.26  0.000104  ( 0.001383  0.010052  0.000996)
 23:    166.56   0.000278    1.40  0.000521  (-0.016391  0.007684  0.013895)
 24:    189.34   0.001203    6.08  0.001983  ( 0.024141  0.014909 -0.034314)
 25:    195.17   0.007254   36.66  0.011599  ( 0.092462 -0.012147  0.053873)
 26:    203.84   0.000275    1.39  0.000421  (-0.018619 -0.002650 -0.008187)
 27:    204.95   0.000351    1.77  0.000535  (-0.019548  0.001409 -0.012269)
 28:    214.38   0.003270   16.52  0.004760  (-0.068531 -0.001671  0.007768)
 29:    235.98   0.000752    3.80  0.000995  ( 0.030057  0.000554  0.009531)
 30:    245.80   0.000122    0.61  0.000154  (-0.011968  0.002104 -0.002604)
 31:    256.03   0.000471    2.38  0.000575  (-0.022902  0.006944 -0.001336)
 32:    259.21   0.000092    0.47  0.000111  (-0.010217 -0.002496  0.000446)
 33:    271.65   0.006726   33.99  0.007726  ( 0.084824  0.001632  0.022993)
 34:    288.61   0.001299    6.56  0.001404  ( 0.009698 -0.034539 -0.010836)
 35:    304.03   0.000136    0.69  0.000139  ( 0.006955 -0.002553  0.009194)
 36:    311.76   0.000641    3.24  0.000641  ( 0.023780 -0.008708 -0.000384)
 37:    334.61   0.000088    0.45  0.000082  ( 0.003344 -0.008150 -0.002175)
 38:    347.36   0.000292    1.48  0.000262  (-0.013507  0.008747  0.001857)
 39:    360.73   0.000130    0.66  0.000113  ( 0.010236  0.002468 -0.001353)
 40:    363.95   0.000091    0.46  0.000078  ( 0.000583 -0.008108  0.003408)
 41:    368.99   0.001985   10.03  0.001679  ( 0.008249  0.038318 -0.011948)
 42:    369.69   0.000054    0.27  0.000045  (-0.002658 -0.002834  0.005491)
 43:    377.60   0.000166    0.84  0.000137  (-0.004383 -0.009802 -0.004667)
 44:    395.32   0.023503  118.77  0.018553  ( 0.113234  0.020870  0.072768)
 45:    404.06   0.003108   15.70  0.002400  ( 0.008044  0.008310 -0.047606)
 46:    415.77   0.009502   48.02  0.007132  (-0.079295 -0.020059 -0.021022)
 47:    465.60   0.002047   10.34  0.001372  ( 0.022009  0.009870  0.028108)
 48:    512.38   0.008738   44.16  0.005322  (-0.006691 -0.065981 -0.030394)
 49:    524.39   0.009023   45.60  0.005370  (-0.029803  0.062423  0.024183)
 50:    539.59   0.011891   60.09  0.006877  ( 0.007176  0.062113  0.054476)
 51:    554.76   0.006260   31.63  0.003521  ( 0.022751  0.054639 -0.004253)
 52:    556.51   0.004918   24.85  0.002758  ( 0.037555  0.034021 -0.013786)
 53:    577.68   0.000998    5.04  0.000539  (-0.012854  0.015513 -0.011535)
 54:    596.04   0.002644   13.36  0.001384  ( 0.003958  0.034125  0.014281)
 55:    609.04   0.000308    1.56  0.000158  ( 0.010587 -0.003467 -0.005810)
 56:    639.64   0.020601  104.11  0.010050  (-0.015053 -0.095510 -0.026489)
 57:    652.34   0.028031  141.66  0.013409  ( 0.025075 -0.020421 -0.111191)
 58:    662.44   0.020860  105.42  0.009827  (-0.001973 -0.097926 -0.015272)
 59:    681.39   0.004608   23.29  0.002110  (-0.006194  0.042783  0.015546)
 60:    693.54   0.036298  183.44  0.016333  (-0.072830  0.085105  0.061525)
 61:    719.63   0.000602    3.04  0.000261  ( 0.005613 -0.015039  0.001824)
 62:    727.40   0.003306   16.71  0.001418  (-0.008816 -0.035448 -0.009168)
 63:    768.76   0.001200    6.07  0.000487  ( 0.007902 -0.019945  0.005194)
 64:    807.87   0.016699   84.39  0.006450  (-0.007719 -0.069567  0.039385)
 65:    877.27   0.004758   24.04  0.001692  ( 0.004272 -0.040839 -0.002510)
 66:   1001.92   0.009439   47.70  0.002940  (-0.002398 -0.044031 -0.031552)
 67:   1091.64   0.014885   75.22  0.004255  ( 0.040415  0.043615 -0.026826)
 68:   1109.18   0.050006  252.71  0.014069  (-0.087543  0.015872 -0.078444)
 69:   1117.26   0.008184   41.36  0.002286  (-0.024327  0.003971  0.040968)
 70:   1122.06   0.014650   74.03  0.004074  (-0.004213 -0.012593  0.062434)
 71:   1128.63   0.060121  303.83  0.016623  (-0.110815 -0.035712  0.055388)
 72:   1137.78   0.110197  556.89  0.030224  ( 0.172933  0.000237 -0.017847)
 73:   1147.65   0.057736  291.77  0.015699  ( 0.064502 -0.020949  0.105355)
 74:   1150.58   0.013125   66.33  0.003560  (-0.059629 -0.001023  0.001769)
 75:   1156.16   0.126122  637.37  0.034042  (-0.064560  0.051430 -0.165012)
 76:   1160.56   0.080045  404.51  0.021523  (-0.113963  0.023774  0.089279)
 77:   1170.72   0.072686  367.32  0.019375  (-0.051046  0.059972 -0.114771)
 78:   1184.44   0.041897  211.73  0.011039  (-0.005954 -0.034263  0.099142)
 79:   1195.19   0.007264   36.71  0.001897  (-0.030518  0.015662 -0.026834)
 80:   1217.56   0.011505   58.14  0.002949  (-0.018676  0.048297 -0.016353)
 81:   1250.37   0.004329   21.87  0.001080  ( 0.027203 -0.018227  0.002845)
 82:   1266.72   0.002528   12.78  0.000623  ( 0.017256 -0.017968 -0.001479)
 83:   1289.49   0.007871   39.78  0.001905  (-0.009451  0.026279  0.033540)
 84:   1343.92   0.029389  148.52  0.006824  (-0.012622 -0.081166 -0.008782)
 85:   1393.45   0.033379  168.68  0.007475  (-0.008340 -0.085437  0.010299)
 86:   1648.87   0.027324  138.09  0.005171  ( 0.053105  0.042530 -0.023290)
 87:   1654.76   0.022729  114.86  0.004286  ( 0.023984 -0.059493  0.013107)
 88:   1712.52   0.226880  1146.56  0.041343  (-0.201798  0.022426 -0.010850)
 89:   3484.45   0.331428  1674.90  0.029682  (-0.167707 -0.004870 -0.039154)
 90:   3505.03   0.053776  271.76  0.004788  (-0.067722  0.013220 -0.005177)
 91:   3800.69   0.021871  110.53  0.001796  (-0.037992 -0.017428 -0.006974)
 92:   3801.94   0.014724   74.41  0.001209  ( 0.019193 -0.015541  0.024467)

--------------------------
THERMOCHEMISTRY AT 298.15K
--------------------------

Temperature         ...   298.15 K
Pressure            ...     1.00 atm
Total Mass          ...   449.09 AMU
Quasi RRHO          ...     True
Cut-Off Frequency   ...     1.00 cm^-1

Throughout the following assumptions are being made:
  (1) The electronic state is orbitally nondegenerate
  (2) There are no thermally accessible electronically excited states
  (3) Hindered rotations indicated by low frequency modes are not
      treated as such but are treated as vibrations and this may
      cause some error
  (4) All equations used are the standard statistical mechanics
      equations for an ideal gas
  (5) All vibrations are strictly harmonic

freq.      15.52  E(vib)   ...       0.57
freq.      20.10  E(vib)   ...       0.56
freq.      23.25  E(vib)   ...       0.56
freq.      30.34  E(vib)   ...       0.55
freq.      33.97  E(vib)   ...       0.55
freq.      40.90  E(vib)   ...       0.54
freq.      42.72  E(vib)   ...       0.53
freq.      47.84  E(vib)   ...       0.53
freq.      57.55  E(vib)   ...       0.51
freq.      65.29  E(vib)   ...       0.50
freq.      67.86  E(vib)   ...       0.50
freq.      69.54  E(vib)   ...       0.50
freq.      74.95  E(vib)   ...       0.49
freq.      83.93  E(vib)   ...       0.48
freq.     118.74  E(vib)   ...       0.44
freq.     133.02  E(vib)   ...       0.42
freq.     156.32  E(vib)   ...       0.40
freq.     166.56  E(vib)   ...       0.39
freq.     189.34  E(vib)   ...       0.36
freq.     195.17  E(vib)   ...       0.36
freq.     203.84  E(vib)   ...       0.35
freq.     204.95  E(vib)   ...       0.35
freq.     214.38  E(vib)   ...       0.34
freq.     235.98  E(vib)   ...       0.32
freq.     245.80  E(vib)   ...       0.31
freq.     256.03  E(vib)   ...       0.30
freq.     259.21  E(vib)   ...       0.30
freq.     271.65  E(vib)   ...       0.29
freq.     288.61  E(vib)   ...       0.27
freq.     304.03  E(vib)   ...       0.26
freq.     311.76  E(vib)   ...       0.25
freq.     334.61  E(vib)   ...       0.24
freq.     347.36  E(vib)   ...       0.23
freq.     360.73  E(vib)   ...       0.22
freq.     363.95  E(vib)   ...       0.22
freq.     368.99  E(vib)   ...       0.21
freq.     369.69  E(vib)   ...       0.21
freq.     377.60  E(vib)   ...       0.21
freq.     395.32  E(vib)   ...       0.20
freq.     404.06  E(vib)   ...       0.19
freq.     415.77  E(vib)   ...       0.18
freq.     465.60  E(vib)   ...       0.16
freq.     512.38  E(vib)   ...       0.13
freq.     524.39  E(vib)   ...       0.13
freq.     539.59  E(vib)   ...       0.12
freq.     554.76  E(vib)   ...       0.12
freq.     556.51  E(vib)   ...       0.12
freq.     577.68  E(vib)   ...       0.11
freq.     596.04  E(vib)   ...       0.10
freq.     609.04  E(vib)   ...       0.10
freq.     639.64  E(vib)   ...       0.09
freq.     652.34  E(vib)   ...       0.08
freq.     662.44  E(vib)   ...       0.08
freq.     681.39  E(vib)   ...       0.08
freq.     693.54  E(vib)   ...       0.07
freq.     719.63  E(vib)   ...       0.07
freq.     727.40  E(vib)   ...       0.06
freq.     768.76  E(vib)   ...       0.06
freq.     807.87  E(vib)   ...       0.05
freq.     877.27  E(vib)   ...       0.04
freq.    1001.92  E(vib)   ...       0.02
freq.    1091.64  E(vib)   ...       0.02
freq.    1109.18  E(vib)   ...       0.02
freq.    1117.26  E(vib)   ...       0.01
freq.    1122.06  E(vib)   ...       0.01
freq.    1128.63  E(vib)   ...       0.01
freq.    1137.78  E(vib)   ...       0.01
freq.    1147.65  E(vib)   ...       0.01
freq.    1150.58  E(vib)   ...       0.01
freq.    1156.16  E(vib)   ...       0.01
freq.    1160.56  E(vib)   ...       0.01
freq.    1170.72  E(vib)   ...       0.01
freq.    1184.44  E(vib)   ...       0.01
freq.    1195.19  E(vib)   ...       0.01
freq.    1217.56  E(vib)   ...       0.01
freq.    1250.37  E(vib)   ...       0.01
freq.    1266.72  E(vib)   ...       0.01
freq.    1289.49  E(vib)   ...       0.01
freq.    1343.92  E(vib)   ...       0.01
freq.    1393.45  E(vib)   ...       0.00
freq.    1648.87  E(vib)   ...       0.00
freq.    1654.76  E(vib)   ...       0.00
freq.    1712.52  E(vib)   ...       0.00
freq.    3484.45  E(vib)   ...       0.00
freq.    3505.03  E(vib)   ...       0.00
freq.    3800.69  E(vib)   ...       0.00
freq.    3801.94  E(vib)   ...       0.00

------------
INNER ENERGY
------------

The inner energy is: U= E(el) + E(ZPE) + E(vib) + E(rot) + E(trans)
    E(el)   - is the total energy from the electronic structure calculation
              = E(kin-el) + E(nuc-el) + E(el-el) + E(nuc-nuc)
    E(ZPE)  - the the zero temperature vibrational energy from the frequency calculation
    E(vib)  - the the finite temperature correction to E(ZPE) due to population
              of excited vibrational states
    E(rot)  - is the rotational thermal energy
    E(trans)- is the translational thermal energy

Summary of contributions to the inner energy U:
Electronic energy                ...  -2106.08530081 Eh
Zero point energy                ...      0.14483917 Eh      90.89 kcal/mol
Thermal vibrational correction   ...      0.02738264 Eh      17.18 kcal/mol
Thermal rotational correction    ...      0.00141627 Eh       0.89 kcal/mol
Thermal translational correction ...      0.00141627 Eh       0.89 kcal/mol
-----------------------------------------------------------------------
Total thermal energy                  -2105.91024646 Eh

Summary of corrections to the electronic energy:
(perhaps to be used in another calculation)
Total thermal correction                  0.03021518 Eh      18.96 kcal/mol
Non-thermal (ZPE) correction              0.14483917 Eh      90.89 kcal/mol
-----------------------------------------------------------------------
Total correction                          0.17505435 Eh     109.85 kcal/mol

--------
ENTHALPY
--------

The enthalpy is H = U + kB*T
                kB is Boltzmann's constant
Total thermal energy              ...  -2105.91024646 Eh
Thermal Enthalpy correction       ...      0.00094421 Eh       0.59 kcal/mol
-----------------------------------------------------------------------
Total Enthalpy                    ...  -2105.90930225 Eh

Note: Only C1 symmetry has been detected, increase convergence thresholds
      if your molecule has a higher symmetry. Symmetry factor of 1.0 is
      used for the rotational entropy correction.

Note: Rotational entropy computed according to Herzberg
Infrared and Raman Spectra, Chapter V,1, Van Nostrand Reinhold, 1945
Point Group:  C1, Symmetry Number:   1
Rotational constants in cm-1:     0.013012     0.003226     0.002937

Vibrational entropy computed according to the QRRHO of S. Grimme

                             ****ORCA TERMINATED NORMALLY****
TOTAL RUN TIME: 0 days 0 hours 19 minutes 36 seconds 617 msec
