                         Program Version 6.0.1  -  RELEASE   -
|  1> !r2scanh def2-TZVP opt d3 TightSCF SlowConv defgrid2
|  2>
|  3> %pal
|  4> nprocs 20
|  5> end
|  6>
|  7> %scf
|  8> MaxIter 1500
|  9> end
| 10>
| 11> %maxcore 8000
| 12>
| 13> !CPCM
| 14> %cpcm smd true
| 15> SMDsolvent "ACETONITRILE"
| 16> end
| 17>
| 18> * xyz 0 2
| 19> 6        4.790427000     -0.033865800     -0.529943200
| 20> 8        5.449345000     -1.206924000     -0.894594600
| 21> 8        4.978223000      1.323071000     -0.737377200
| 22> 6        3.506687600     -0.338741600      0.376153800
| 23> 6        2.222300000      0.400524800     -0.110681600
| 24> 6        0.900506800     -0.386389800      0.175703000
| 25> 6       -0.395261200      0.487294000      0.065549000
| 26> 6       -1.705693600     -0.364773800     -0.068373600
| 27> 6       -3.005136200      0.445344800      0.258164000
| 28> 6       -4.319880200     -0.214526000     -0.270540800
| 29> 9        3.211587400     -1.692050400      0.412735200
| 30> 9        2.125696800      1.616867800      0.483236600
| 31> 9        2.314152400      0.589704000     -1.455769200
| 32> 9        0.794028800     -1.413561400     -0.700839000
| 33> 9        0.958350600     -0.884509000      1.435093400
| 34> 9       -0.498373400      1.260265600      1.173340200
| 35> 9       -0.299075000      1.289512600     -1.020910800
| 36> 9       -1.641790400     -1.418189000      0.779523800
| 37> 9       -1.792381400     -0.831391600     -1.336863600
| 38> 9       -2.918792200      1.679227200     -0.295171200
| 39> 9       -3.119771000      0.573779800      1.598579800
| 40> 9       -4.383115600     -1.504377600      0.089127600
| 41> 9       -5.365669800      0.430528600      0.260394200
| 42> 9       -4.396020400     -0.128550600     -1.602941800
| 43> 1        5.903122371     -2.014774547     -1.145719253
| 44> *
| 45>
| 46>                          ****END OF INPUT****
 Total Charge           Charge          ....    0
 Multiplicity           Mult            ....    2
 Number of Electrons    NEL             ....  191
Dispersion correction           -0.008166779
FINAL SINGLE POINT ENERGY     -1853.452176003714
Dispersion correction             ... done (  0.0 sec)
Dispersion correction           -0.008222501
FINAL SINGLE POINT ENERGY     -1853.506302140167
Dispersion correction             ... done (  0.1 sec)
Dispersion correction           -0.008251641
FINAL SINGLE POINT ENERGY     -1853.520937761138
Dispersion correction             ... done (  0.0 sec)
FINAL SINGLE POINT ENERGY     -1853.528229120579
FINAL SINGLE POINT ENERGY     -1853.531937918778
FINAL SINGLE POINT ENERGY     -1853.528826319226
FINAL SINGLE POINT ENERGY     -1853.534890997949
FINAL SINGLE POINT ENERGY     -1853.537268878179
FINAL SINGLE POINT ENERGY     -1853.543130640180
FINAL SINGLE POINT ENERGY     -1853.536954170497
FINAL SINGLE POINT ENERGY     -1853.576791699443
FINAL SINGLE POINT ENERGY     -1853.576576550476
FINAL SINGLE POINT ENERGY     -1853.576915227610
FINAL SINGLE POINT ENERGY     -1853.576887441154
FINAL SINGLE POINT ENERGY     -1853.576941253859
FINAL SINGLE POINT ENERGY     -1853.576945453009
FINAL SINGLE POINT ENERGY     -1853.576952490988
Dispersion correction             ... done (  0.0 sec)
Dispersion correction           -0.008225309
FINAL SINGLE POINT ENERGY     -1853.576954921873
Dispersion correction             ... done (  0.0 sec)
Dispersion correction           -0.008225405
FINAL SINGLE POINT ENERGY     -1853.576956632164
Dispersion correction             ... done (  0.0 sec)
                    ***********************HURRAY********************

CARTESIAN COORDINATES (ANGSTROEM)
---------------------------------
  C      4.718854   -0.147405   -0.307729
  O      5.630143   -1.091091   -0.078983
  O      4.951017    1.014875   -0.547549
  C      3.364950   -0.669324   -0.243942
  C      2.154015    0.178475   -0.494573
  C      0.830153   -0.536286   -0.101369
  C     -0.406138    0.415079   -0.068472
  C     -1.758281   -0.360818   -0.118274
  C     -2.961098    0.494638    0.377349
  C     -4.343544   -0.059632   -0.064329
  F      3.173140   -1.963038   -0.108938
  F      2.227095    1.326425    0.210565
  F      2.087055    0.511840   -1.806752
  F      0.597538   -1.524789   -0.980162
  F      0.977806   -1.061834    1.124939
  F     -0.363188    1.134015    1.063289
  F     -0.361445    1.251285   -1.114387
  F     -1.672899   -1.453176    0.655877
  F     -1.986932   -0.744088   -1.382939
  F     -2.851943    1.745292   -0.097054
  F     -2.943230    0.531065    1.715596
  F     -4.426480   -1.359687    0.197246
  F     -5.294018    0.575974    0.610002
  F     -4.539689    0.136638   -1.360282
  H      6.510585   -0.680942   -0.141251

 Multiplicity           Mult            ....    2
 Number of Electrons    NEL             ....  191
 Basis Dimension        Dim             ....  750

ORBITAL ENERGIES
----------------
                 SPIN UP ORBITALS
  NO   OCC          E(Eh)            E(eV)
   0   1.0000     -24.742612      -673.2807
   1   1.0000     -24.734809      -673.0684
   2   1.0000     -24.734773      -673.0674
   3   1.0000     -24.734129      -673.0499
   4   1.0000     -24.734011      -673.0467
   5   1.0000     -24.733570      -673.0347
   6   1.0000     -24.733506      -673.0329
   7   1.0000     -24.732977      -673.0185
   8   1.0000     -24.732954      -673.0179
   9   1.0000     -24.732625      -673.0089
  10   1.0000     -24.732310      -673.0004
  11   1.0000     -24.731721      -672.9844
  12   1.0000     -24.723076      -672.7491
  13   1.0000     -24.720336      -672.6745
  14   1.0000     -19.182520      -521.9829
  15   1.0000     -19.130775      -520.5748
  16   1.0000     -10.441952      -284.1400
  17   1.0000     -10.390343      -282.7356
  18   1.0000     -10.389830      -282.7217
  19   1.0000     -10.387762      -282.6654
  20   1.0000     -10.386559      -282.6326
  21   1.0000     -10.383002      -282.5358
  22   1.0000     -10.315956      -280.7114
  23   1.0000     -10.308706      -280.5142
  24   1.0000      -1.363681       -37.1077
  25   1.0000      -1.343380       -36.5552
  26   1.0000      -1.328458       -36.1492
  27   1.0000      -1.317703       -35.8565
  28   1.0000      -1.317437       -35.8493
  29   1.0000      -1.308224       -35.5986
  30   1.0000      -1.300902       -35.3993
  31   1.0000      -1.276380       -34.7321
  32   1.0000      -1.271154       -34.5899
  33   1.0000      -1.268616       -34.5208
  34   1.0000      -1.264669       -34.4134
  35   1.0000      -1.259727       -34.2789
  36   1.0000      -1.258504       -34.2456
  37   1.0000      -1.248784       -33.9811
  38   1.0000      -1.138645       -30.9841
  39   1.0000      -1.052181       -28.6313
  40   1.0000      -0.852742       -23.2043
  41   1.0000      -0.839949       -22.8562
  42   1.0000      -0.814211       -22.1558
  43   1.0000      -0.776949       -21.1419
  44   1.0000      -0.735025       -20.0010
  45   1.0000      -0.697269       -18.9737
  46   1.0000      -0.678588       -18.4653
  47   1.0000      -0.651725       -17.7343
  48   1.0000      -0.644678       -17.5426
  49   1.0000      -0.639944       -17.4137
  50   1.0000      -0.631821       -17.1927
  51   1.0000      -0.624778       -17.0011
  52   1.0000      -0.622255       -16.9324
  53   1.0000      -0.617121       -16.7927
  54   1.0000      -0.607490       -16.5306
  55   1.0000      -0.601178       -16.3589
  56   1.0000      -0.595792       -16.2123
  57   1.0000      -0.592238       -16.1156
  58   1.0000      -0.583056       -15.8658
  59   1.0000      -0.579229       -15.7616
  60   1.0000      -0.573192       -15.5973
  61   1.0000      -0.551355       -15.0031
  62   1.0000      -0.531434       -14.4611
  63   1.0000      -0.509995       -13.8777
  64   1.0000      -0.505548       -13.7567
  65   1.0000      -0.504765       -13.7353
  66   1.0000      -0.497691       -13.5428
  67   1.0000      -0.494933       -13.4678
  68   1.0000      -0.489409       -13.3175
  69   1.0000      -0.487426       -13.2635
  70   1.0000      -0.485169       -13.2021
  71   1.0000      -0.477723       -12.9995
  72   1.0000      -0.474726       -12.9180
  73   1.0000      -0.472126       -12.8472
  74   1.0000      -0.470159       -12.7937
  75   1.0000      -0.464166       -12.6306
  76   1.0000      -0.463216       -12.6048
  77   1.0000      -0.458012       -12.4632
  78   1.0000      -0.451255       -12.2793
  79   1.0000      -0.447214       -12.1693
  80   1.0000      -0.443502       -12.0683
  81   1.0000      -0.440793       -11.9946
  82   1.0000      -0.438782       -11.9399
  83   1.0000      -0.435048       -11.8382
  84   1.0000      -0.433440       -11.7945
  85   1.0000      -0.431219       -11.7341
  86   1.0000      -0.428708       -11.6657
  87   1.0000      -0.427736       -11.6393
  88   1.0000      -0.424466       -11.5503
  89   1.0000      -0.417692       -11.3660
  90   1.0000      -0.405899       -11.0451
  91   1.0000      -0.374075       -10.1791
  92   1.0000      -0.347840        -9.4652
  93   1.0000      -0.336108        -9.1460
  94   1.0000      -0.302770        -8.2388
  95   1.0000      -0.267380        -7.2758
  96   0.0000      -0.021926        -0.5966
  97   0.0000      -0.011529        -0.3137
  98   0.0000       0.003837         0.1044
  99   0.0000       0.033892         0.9222
 100   0.0000       0.044875         1.2211

                 SPIN DOWN ORBITALS
  NO   OCC          E(Eh)            E(eV)
   0   1.0000     -24.737493      -673.1414
   1   1.0000     -24.734808      -673.0683
   2   1.0000     -24.734772      -673.0674
   3   1.0000     -24.734129      -673.0499
   4   1.0000     -24.734011      -673.0467
   5   1.0000     -24.733571      -673.0347
   6   1.0000     -24.733504      -673.0329
   7   1.0000     -24.732954      -673.0179
   8   1.0000     -24.732930      -673.0172
   9   1.0000     -24.732625      -673.0089
  10   1.0000     -24.732310      -673.0004
  11   1.0000     -24.731670      -672.9830
  12   1.0000     -24.722358      -672.7296
  13   1.0000     -24.718714      -672.6304
  14   1.0000     -19.182020      -521.9693
  15   1.0000     -19.125635      -520.4350
  16   1.0000     -10.441952      -284.1400
  17   1.0000     -10.390346      -282.7357
  18   1.0000     -10.389842      -282.7220
  19   1.0000     -10.387763      -282.6654
  20   1.0000     -10.386528      -282.6318
  21   1.0000     -10.383813      -282.5579
  22   1.0000     -10.317464      -280.7525
  23   1.0000     -10.293363      -280.0966
  24   1.0000      -1.363681       -37.1077
  25   1.0000      -1.343243       -36.5515
  26   1.0000      -1.328010       -36.1370
  27   1.0000      -1.317576       -35.8531
  28   1.0000      -1.317182       -35.8423
  29   1.0000      -1.306420       -35.5495
  30   1.0000      -1.292328       -35.1660
  31   1.0000      -1.276365       -34.7317
  32   1.0000      -1.271087       -34.5880
  33   1.0000      -1.268614       -34.5207
  34   1.0000      -1.264560       -34.4104
  35   1.0000      -1.259671       -34.2774
  36   1.0000      -1.258475       -34.2449
  37   1.0000      -1.246507       -33.9192
  38   1.0000      -1.136325       -30.9210
  39   1.0000      -1.045745       -28.4562
  40   1.0000      -0.850845       -23.1527
  41   1.0000      -0.832949       -22.6657
  42   1.0000      -0.805437       -21.9171
  43   1.0000      -0.768857       -20.9217
  44   1.0000      -0.731609       -19.9081
  45   1.0000      -0.696442       -18.9512
  46   1.0000      -0.678310       -18.4578
  47   1.0000      -0.649075       -17.6622
  48   1.0000      -0.644347       -17.5336
  49   1.0000      -0.638502       -17.3745
  50   1.0000      -0.631742       -17.1906
  51   1.0000      -0.624483       -16.9931
  52   1.0000      -0.621429       -16.9099
  53   1.0000      -0.616048       -16.7635
  54   1.0000      -0.606312       -16.4986
  55   1.0000      -0.600520       -16.3410
  56   1.0000      -0.594974       -16.1901
  57   1.0000      -0.590340       -16.0640
  58   1.0000      -0.580768       -15.8035
  59   1.0000      -0.576836       -15.6965
  60   1.0000      -0.571428       -15.5494
  61   1.0000      -0.548207       -14.9175
  62   1.0000      -0.508873       -13.8471
  63   1.0000      -0.504709       -13.7338
  64   1.0000      -0.503568       -13.7028
  65   1.0000      -0.501487       -13.6461
  66   1.0000      -0.496386       -13.5074
  67   1.0000      -0.493832       -13.4379
  68   1.0000      -0.489140       -13.3102
  69   1.0000      -0.487237       -13.2584
  70   1.0000      -0.483683       -13.1617
  71   1.0000      -0.477330       -12.9888
  72   1.0000      -0.474172       -12.9029
  73   1.0000      -0.470684       -12.8080
  74   1.0000      -0.468758       -12.7556
  75   1.0000      -0.462223       -12.5777
  76   1.0000      -0.460279       -12.5248
  77   1.0000      -0.452410       -12.3107
  78   1.0000      -0.451247       -12.2791
  79   1.0000      -0.445636       -12.1264
  80   1.0000      -0.443269       -12.0619
  81   1.0000      -0.440738       -11.9931
  82   1.0000      -0.438641       -11.9360
  83   1.0000      -0.434509       -11.8236
  84   1.0000      -0.433297       -11.7906
  85   1.0000      -0.428734       -11.6664
  86   1.0000      -0.427585       -11.6352
  87   1.0000      -0.426570       -11.6076
  88   1.0000      -0.423281       -11.5181
  89   1.0000      -0.414625       -11.2825
  90   1.0000      -0.404334       -11.0025
  91   1.0000      -0.372467       -10.1353
  92   1.0000      -0.334986        -9.1154
  93   1.0000      -0.332004        -9.0343
  94   1.0000      -0.297084        -8.0841
  95   0.0000      -0.143570        -3.9067
  96   0.0000      -0.021282        -0.5791
  97   0.0000      -0.004555        -0.1240
  98   0.0000       0.013981         0.3805
  99   0.0000       0.036820         1.0019

MULLIKEN ATOMIC CHARGES AND SPIN POPULATIONS
--------------------------------------------
   0 C :    0.301762   -0.070812
   1 O :   -0.392171    0.017096
   2 O :   -0.360886    0.161380
   3 C :    0.172807    0.783258
   4 C :    0.392341   -0.015427
   5 C :    0.329072   -0.005578
   6 C :    0.327062    0.000059
   7 C :    0.299305   -0.000101
   8 C :    0.330993   -0.000015
   9 C :    0.470911   -0.000007
  10 F :   -0.143922    0.092975
  11 F :   -0.169602    0.010949
  12 F :   -0.175006    0.027466
  13 F :   -0.166547    0.000807
  14 F :   -0.165283    0.000682
  15 F :   -0.162340   -0.000002
  16 F :   -0.161268   -0.000005
  17 F :   -0.162836    0.000009
  18 F :   -0.162495    0.000001
  19 F :   -0.162598   -0.000001
  20 F :   -0.159197    0.000000
  21 F :   -0.155757    0.000000
  22 F :   -0.152841   -0.000003
  23 F :   -0.153671   -0.000000
  24 H :    0.382166   -0.002735
Sum of atomic charges         :    0.0000000

LOEWDIN ATOMIC CHARGES AND SPIN POPULATIONS
-------------------------------------------
   0 C :   -0.523662    0.050252
   1 O :    0.134148    0.014214
   2 O :    0.105802    0.134640
   3 C :   -0.153993    0.602493
   4 C :   -0.473069    0.047030
   5 C :   -0.464653    0.000307
   6 C :   -0.471029   -0.000246
   7 C :   -0.472360   -0.000065
   8 C :   -0.478603   -0.000019
   9 C :   -0.679924   -0.000006
  10 F :    0.267573    0.106836
  11 F :    0.220679    0.013587
  12 F :    0.205555    0.029719
  13 F :    0.230494    0.001020
  14 F :    0.231566    0.001082
  15 F :    0.232697   -0.000001
  16 F :    0.234754    0.000074
  17 F :    0.233221    0.000012
  18 F :    0.233302    0.000008
  19 F :    0.230656    0.000002
  20 F :    0.232731    0.000000
  21 F :    0.231113    0.000001
  22 F :    0.232391   -0.000003
  23 F :    0.233724    0.000000
  24 H :    0.226887   -0.000937

  Mayer bond orders larger than 0.100000
B(  0-C ,  1-O ) :   1.2736 B(  0-C ,  2-O ) :   1.9471 B(  0-C ,  3-C ) :   1.1214
B(  1-O , 24-H ) :   0.8254 B(  3-C ,  4-C ) :   1.0127 B(  3-C , 10-F ) :   1.0959
B(  4-C ,  5-C ) :   0.9338 B(  4-C , 11-F ) :   1.0518 B(  4-C , 12-F ) :   1.0614
B(  5-C ,  6-C ) :   0.9419 B(  5-C , 13-F ) :   1.0695 B(  5-C , 14-F ) :   1.0850
B(  6-C ,  7-C ) :   0.9286 B(  6-C , 15-F ) :   1.0872 B(  6-C , 16-F ) :   1.0885
B(  7-C ,  8-C ) :   0.9344 B(  7-C , 17-F ) :   1.0810 B(  7-C , 18-F ) :   1.0905
B(  8-C ,  9-C ) :   0.9528 B(  8-C , 19-F ) :   1.0826 B(  8-C , 20-F ) :   1.0982
B(  9-C , 21-F ) :   1.1283 B(  9-C , 22-F ) :   1.1342 B(  9-C , 23-F ) :   1.1430

Dispersion correction           -0.008225522
FINAL SINGLE POINT ENERGY     -1853.576956826263

DIPOLE MOMENT
-------------

Method             : SCF
Type of density    : Electron Density
Multiplicity       :   2
Irrep              :   0
Energy             : -1853.5687313046171312 Eh
Relativity type    :
Basis              : AO
                                X                 Y                 Z
Electronic contribution:    -16.669481385      -0.112840306       0.559000154
Nuclear contribution   :     17.562344361      -0.635662963      -0.378751583
                        -----------------------------------------
Total Dipole Moment    :      0.892862976      -0.748503269       0.180248571
                        -----------------------------------------
Magnitude (a.u.)       :      1.178961825
Magnitude (Debye)      :      2.996682808

Rotational constants in cm-1:             0.023454             0.004007             0.003879
Rotational constants in MHz :           703.119681           120.127619           116.283698

                             ****ORCA TERMINATED NORMALLY****
TOTAL RUN TIME: 0 days 0 hours 49 minutes 41 seconds 880 msec
