                         Program Version 5.0.3 -  RELEASE  -
|  1> !TPSSh def2-TZVP opt d3 TightSCF SlowConv defgrid2
|  2>
|  3> %pal
|  4> nprocs 20
|  5> end
|  6>
|  7> %scf
|  8> MaxIter 1500
|  9> end
| 10>
| 11> %maxcore 8000
| 12>
| 13> !CPCM
| 14> %cpcm smd true
| 15> SMDsolvent "ACETONITRILE"
| 16> end
| 17>
| 18> * xyz -1 1
| 19> 6        4.790427000     -0.033865800     -0.529943200
| 20> 8        5.449345000     -1.206924000     -0.894594600
| 21> 8        4.978223000      1.323071000     -0.737377200
| 22> 6        3.506687600     -0.338741600      0.376153800
| 23> 6        2.222300000      0.400524800     -0.110681600
| 24> 6        0.900506800     -0.386389800      0.175703000
| 25> 6       -0.395261200      0.487294000      0.065549000
| 26> 6       -1.705693600     -0.364773800     -0.068373600
| 27> 6       -3.005136200      0.445344800      0.258164000
| 28> 6       -4.319880200     -0.214526000     -0.270540800
| 29> 9        3.211587400     -1.692050400      0.412735200
| 30> 9        3.741061800      0.055285800      1.689948800
| 31> 9        2.125696800      1.616867800      0.483236600
| 32> 9        2.314152400      0.589704000     -1.455769200
| 33> 9        0.794028800     -1.413561400     -0.700839000
| 34> 9        0.958350600     -0.884509000      1.435093400
| 35> 9       -0.498373400      1.260265600      1.173340200
| 36> 9       -0.299075000      1.289512600     -1.020910800
| 37> 9       -1.641790400     -1.418189000      0.779523800
| 38> 9       -1.792381400     -0.831391600     -1.336863600
| 39> 9       -2.918792200      1.679227200     -0.295171200
| 40> 9       -3.119771000      0.573779800      1.598579800
| 41> 9       -4.383115600     -1.504377600      0.089127600
| 42> 9       -5.365669800      0.430528600      0.260394200
| 43> 9       -4.396020400     -0.128550600     -1.602941800
| 44> *
| 45>
| 46>                          ****END OF INPUT****
 Total Charge           Charge          ....   -1
 Multiplicity           Mult            ....    1
 Number of Electrons    NEL             ....  200
Dispersion correction           -0.030415464
FINAL SINGLE POINT ENERGY     -1953.843304305452
Dispersion correction            ... done
Dispersion correction           -0.030518196
FINAL SINGLE POINT ENERGY     -1953.885065114430
Dispersion correction            ... done
Dispersion correction           -0.030544648
FINAL SINGLE POINT ENERGY     -1953.888602711055
Dispersion correction            ... done
FINAL SINGLE POINT ENERGY     -1953.891012386155
FINAL SINGLE POINT ENERGY     -1953.891040243036
FINAL SINGLE POINT ENERGY     -1953.891110254788
FINAL SINGLE POINT ENERGY     -1953.891386250143
FINAL SINGLE POINT ENERGY     -1953.891406848211
FINAL SINGLE POINT ENERGY     -1953.891423615313
Dispersion correction            ... done
Dispersion correction           -0.030551720
FINAL SINGLE POINT ENERGY     -1953.891425591687
Dispersion correction            ... done
Dispersion correction           -0.030550651
FINAL SINGLE POINT ENERGY     -1953.891425011530
Dispersion correction            ... done
                    ***********************HURRAY********************

CARTESIAN COORDINATES (ANGSTROEM)
---------------------------------
  C      4.819689    0.122433   -0.410253
  O      5.422011   -0.749026   -1.055706
  O      5.044207    1.334059   -0.234009
  C      3.519020   -0.372095    0.343233
  C      2.221395    0.292536   -0.194186
  C      0.891813   -0.445273    0.176639
  C     -0.389097    0.445759    0.020841
  C     -1.720318   -0.378061   -0.049208
  C     -2.995743    0.475133    0.264966
  C     -4.330226   -0.161015   -0.241619
  F      3.345455   -1.727181    0.247294
  F      3.610616   -0.091076    1.682746
  F      2.132586    1.563247    0.267403
  F      2.296524    0.338124   -1.551017
  F      0.755135   -1.533950   -0.615203
  F      0.955085   -0.855187    1.463421
  F     -0.460282    1.285473    1.077691
  F     -0.290787    1.178631   -1.109156
  F     -1.665295   -1.391443    0.841499
  F     -1.841689   -0.900860   -1.288759
  F     -2.883307    1.691891   -0.310368
  F     -3.094012    0.633572    1.599809
  F     -4.415553   -1.443160    0.128982
  F     -5.358594    0.507380    0.289730
  F     -4.417226   -0.086351   -1.571226

 Multiplicity           Mult            ....    1
 Number of Electrons    NEL             ....  200
 Basis Dimension        Dim             ....  775

ORBITAL ENERGIES
----------------

  NO   OCC          E(Eh)            E(eV)
   0   2.0000     -24.660738      -671.0528
   1   2.0000     -24.659688      -671.0242
   2   2.0000     -24.659554      -671.0206
   3   2.0000     -24.659169      -671.0101
   4   2.0000     -24.659126      -671.0089
   5   2.0000     -24.659105      -671.0084
   6   2.0000     -24.658439      -670.9902
   7   2.0000     -24.656227      -670.9301
   8   2.0000     -24.656136      -670.9276
   9   2.0000     -24.650648      -670.7782
  10   2.0000     -24.649946      -670.7591
  11   2.0000     -24.639017      -670.4617
  12   2.0000     -24.638809      -670.4561
  13   2.0000     -24.614189      -669.7861
  14   2.0000     -24.613854      -669.7770
  15   2.0000     -18.988404      -516.7007
  16   2.0000     -18.986592      -516.6514
  17   2.0000     -10.395373      -282.8725
  18   2.0000     -10.343747      -281.4677
  19   2.0000     -10.343249      -281.4541
  20   2.0000     -10.340262      -281.3728
  21   2.0000     -10.332900      -281.1725
  22   2.0000     -10.317121      -280.7431
  23   2.0000     -10.279180      -279.7107
  24   2.0000     -10.189646      -277.2744
  25   2.0000      -1.321931       -35.9716
  26   2.0000      -1.298742       -35.3406
  27   2.0000      -1.283935       -34.9376
  28   2.0000      -1.276550       -34.7367
  29   2.0000      -1.272157       -34.6171
  30   2.0000      -1.260095       -34.2889
  31   2.0000      -1.237229       -33.6667
  32   2.0000      -1.231720       -33.5168
  33   2.0000      -1.231214       -33.5030
  34   2.0000      -1.230321       -33.4787
  35   2.0000      -1.223979       -33.3062
  36   2.0000      -1.220706       -33.2171
  37   2.0000      -1.216089       -33.0915
  38   2.0000      -1.204130       -32.7660
  39   2.0000      -1.175548       -31.9883
  40   2.0000      -0.996814       -27.1247
  41   2.0000      -0.915626       -24.9155
  42   2.0000      -0.823082       -22.3972
  43   2.0000      -0.800845       -21.7921
  44   2.0000      -0.771058       -20.9816
  45   2.0000      -0.732778       -19.9399
  46   2.0000      -0.690311       -18.7843
  47   2.0000      -0.661482       -17.9998
  48   2.0000      -0.642777       -17.4909
  49   2.0000      -0.622493       -16.9389
  50   2.0000      -0.617752       -16.8099
  51   2.0000      -0.609966       -16.5980
  52   2.0000      -0.601166       -16.3586
  53   2.0000      -0.596869       -16.2416
  54   2.0000      -0.595121       -16.1941
  55   2.0000      -0.582523       -15.8513
  56   2.0000      -0.579341       -15.7647
  57   2.0000      -0.574182       -15.6243
  58   2.0000      -0.567758       -15.4495
  59   2.0000      -0.556194       -15.1348
  60   2.0000      -0.553128       -15.0514
  61   2.0000      -0.547648       -14.9023
  62   2.0000      -0.537605       -14.6290
  63   2.0000      -0.521712       -14.1965
  64   2.0000      -0.486596       -13.2409
  65   2.0000      -0.482826       -13.1384
  66   2.0000      -0.477411       -12.9910
  67   2.0000      -0.473643       -12.8885
  68   2.0000      -0.469946       -12.7879
  69   2.0000      -0.466291       -12.6884
  70   2.0000      -0.461740       -12.5646
  71   2.0000      -0.456016       -12.4088
  72   2.0000      -0.452271       -12.3069
  73   2.0000      -0.450070       -12.2470
  74   2.0000      -0.447739       -12.1836
  75   2.0000      -0.441118       -12.0034
  76   2.0000      -0.438055       -11.9201
  77   2.0000      -0.434016       -11.8102
  78   2.0000      -0.432022       -11.7559
  79   2.0000      -0.427776       -11.6404
  80   2.0000      -0.423415       -11.5217
  81   2.0000      -0.422332       -11.4922
  82   2.0000      -0.419431       -11.4133
  83   2.0000      -0.415930       -11.3180
  84   2.0000      -0.414583       -11.2814
  85   2.0000      -0.411673       -11.2022
  86   2.0000      -0.408911       -11.1270
  87   2.0000      -0.405646       -11.0382
  88   2.0000      -0.403000       -10.9662
  89   2.0000      -0.398711       -10.8495
  90   2.0000      -0.389290       -10.5931
  91   2.0000      -0.382796       -10.4164
  92   2.0000      -0.375738       -10.2243
  93   2.0000      -0.373830       -10.1724
  94   2.0000      -0.362817        -9.8727
  95   2.0000      -0.348109        -9.4725
  96   2.0000      -0.318523        -8.6674
  97   2.0000      -0.232107        -6.3160
  98   2.0000      -0.217658        -5.9228
  99   2.0000      -0.215568        -5.8659
 100   0.0000      -0.019349        -0.5265
 101   0.0000      -0.007078        -0.1926
 102   0.0000       0.013510         0.3676
 103   0.0000       0.041332         1.1247
 104   0.0000       0.042875         1.1667

MULLIKEN ATOMIC CHARGES
-----------------------
   0 C :    0.167331
   1 O :   -0.478265
   2 O :   -0.491946
   3 C :    0.301789
   4 C :    0.277211
   5 C :    0.294791
   6 C :    0.293009
   7 C :    0.271850
   8 C :    0.292932
   9 C :    0.408617
  10 F :   -0.195407
  11 F :   -0.200950
  12 F :   -0.164468
  13 F :   -0.173205
  14 F :   -0.156934
  15 F :   -0.155115
  16 F :   -0.151067
  17 F :   -0.150214
  18 F :   -0.148956
  19 F :   -0.149241
  20 F :   -0.146471
  21 F :   -0.143761
  22 F :   -0.135933
  23 F :   -0.132658
  24 F :   -0.132940
Sum of atomic charges:   -1.0000000

LOEWDIN ATOMIC CHARGES
----------------------
   0 C :   -0.691233
   1 O :   -0.047474
   2 O :   -0.053695
   3 C :   -0.439027
   4 C :   -0.457167
   5 C :   -0.458653
   6 C :   -0.459368
   7 C :   -0.460804
   8 C :   -0.467065
   9 C :   -0.668165
  10 F :    0.163288
  11 F :    0.155663
  12 F :    0.210530
  13 F :    0.203473
  14 F :    0.217193
  15 F :    0.219199
  16 F :    0.223231
  17 F :    0.225093
  18 F :    0.226677
  19 F :    0.225481
  20 F :    0.225023
  21 F :    0.226438
  22 F :    0.226096
  23 F :    0.226871
  24 F :    0.228394

  Mayer bond orders larger than 0.100000
B(  0-C ,  1-O ) :   1.8742 B(  0-C ,  2-O ) :   1.8462 B(  0-C ,  3-C ) :   0.8532
B(  3-C ,  4-C ) :   0.9387 B(  3-C , 10-F ) :   1.0513 B(  3-C , 11-F ) :   1.0403
B(  4-C ,  5-C ) :   0.9433 B(  4-C , 12-F ) :   1.0775 B(  4-C , 13-F ) :   1.0680
B(  5-C ,  6-C ) :   0.9539 B(  5-C , 14-F ) :   1.0840 B(  5-C , 15-F ) :   1.0938
B(  6-C ,  7-C ) :   0.9490 B(  6-C , 16-F ) :   1.0906 B(  6-C , 17-F ) :   1.0952
B(  7-C ,  8-C ) :   0.9447 B(  7-C , 18-F ) :   1.0971 B(  7-C , 19-F ) :   1.1012
B(  8-C ,  9-C ) :   0.9720 B(  8-C , 20-F ) :   1.1009 B(  8-C , 21-F ) :   1.1138
B(  9-C , 22-F ) :   1.1581 B(  9-C , 23-F ) :   1.1633 B(  9-C , 24-F ) :   1.1704

Dispersion correction           -0.030550724
FINAL SINGLE POINT ENERGY     -1953.891425724936

DIPOLE MOMENT
-------------
                                X             Y             Z
Electronic contribution:    -18.76480      -0.92314       1.87352
Nuclear contribution   :      9.86118       0.55447      -1.08079
                        -----------------------------------------
Total Dipole Moment    :     -8.90362      -0.36867       0.79272
                        -----------------------------------------
Magnitude (a.u.)       :      8.94644
Magnitude (Debye)      :     22.74004

Rotational constants in cm-1:     0.021228     0.003720     0.003667
Rotational constants in MHz :   636.402350   111.519355   109.922860

                             ****ORCA TERMINATED NORMALLY****
TOTAL RUN TIME: 0 days 0 hours 21 minutes 19 seconds 172 msec
