                         Program Version 6.0.1  -  RELEASE   -
|  1> !r2scanh def2-TZVP opt d3 TightSCF SlowConv defgrid2
|  2>
|  3> %pal
|  4> nprocs 20
|  5> end
|  6>
|  7> %scf
|  8> MaxIter 1500
|  9> end
| 10>
| 11> %maxcore 8000
| 12>
| 13> !CPCM
| 14> %cpcm smd true
| 15> SMDsolvent "ACETONITRILE"
| 16> end
| 17>
| 18> * xyz -1 2
| 19> 6        4.790427000     -0.033865800     -0.529943200
| 20> 8        5.449345000     -1.206924000     -0.894594600
| 21> 8        4.978223000      1.323071000     -0.737377200
| 22> 6        3.506687600     -0.338741600      0.376153800
| 23> 6        2.222300000      0.400524800     -0.110681600
| 24> 6        0.900506800     -0.386389800      0.175703000
| 25> 6       -0.395261200      0.487294000      0.065549000
| 26> 6       -1.705693600     -0.364773800     -0.068373600
| 27> 6       -3.005136200      0.445344800      0.258164000
| 28> 6       -4.319880200     -0.214526000     -0.270540800
| 29> 9        3.741061800      0.055285800      1.689948800
| 30> 9        2.125696800      1.616867800      0.483236600
| 31> 9        2.314152400      0.589704000     -1.455769200
| 32> 9        0.794028800     -1.413561400     -0.700839000
| 33> 9        0.958350600     -0.884509000      1.435093400
| 34> 9       -0.498373400      1.260265600      1.173340200
| 35> 9       -0.299075000      1.289512600     -1.020910800
| 36> 9       -1.641790400     -1.418189000      0.779523800
| 37> 9       -1.792381400     -0.831391600     -1.336863600
| 38> 9       -2.918792200      1.679227200     -0.295171200
| 39> 9       -3.119771000      0.573779800      1.598579800
| 40> 9       -4.383115600     -1.504377600      0.089127600
| 41> 9       -5.365669800      0.430528600      0.260394200
| 42> 9       -4.396020400     -0.128550600     -1.602941800
| 43> *
| 44>
| 45>                          ****END OF INPUT****
 Total Charge           Charge          ....   -1
 Multiplicity           Mult            ....    2
 Number of Electrons    NEL             ....  191
Dispersion correction           -0.007962774
FINAL SINGLE POINT ENERGY     -1853.046670975248
Dispersion correction             ... done (  0.0 sec)
Dispersion correction           -0.008019550
FINAL SINGLE POINT ENERGY     -1853.094552524723
Dispersion correction             ... done (  0.0 sec)
Dispersion correction           -0.008051435
FINAL SINGLE POINT ENERGY     -1853.103062535612
Dispersion correction             ... done (  0.1 sec)
FINAL SINGLE POINT ENERGY     -1853.106533477736
FINAL SINGLE POINT ENERGY     -1853.099138272693
FINAL SINGLE POINT ENERGY     -1853.107585231889
FINAL SINGLE POINT ENERGY     -1853.107937972500
FINAL SINGLE POINT ENERGY     -1853.108258039188
FINAL SINGLE POINT ENERGY     -1853.109324793269
FINAL SINGLE POINT ENERGY     -1853.110626137308
FINAL SINGLE POINT ENERGY     -1853.117059023226
FINAL SINGLE POINT ENERGY     -1853.117259134553
FINAL SINGLE POINT ENERGY     -1853.117327356604
FINAL SINGLE POINT ENERGY     -1853.117376549357
FINAL SINGLE POINT ENERGY     -1853.117425978430
FINAL SINGLE POINT ENERGY     -1853.117451979513
FINAL SINGLE POINT ENERGY     -1853.117458208614
Dispersion correction             ... done (  0.0 sec)
Dispersion correction           -0.008151112
FINAL SINGLE POINT ENERGY     -1853.117459777445
Dispersion correction             ... done (  0.0 sec)
Dispersion correction           -0.008151295
FINAL SINGLE POINT ENERGY     -1853.117460048709
Dispersion correction             ... done (  0.0 sec)
                    ***********************HURRAY********************

CARTESIAN COORDINATES (ANGSTROEM)
---------------------------------
  C      4.406807   -0.672494   -0.384234
  O      3.978529   -1.085801   -1.481434
  O      5.444089   -0.966900    0.236821
  C      3.522989    0.332427    0.290406
  C      2.216275    0.886374   -0.174567
  C      0.997208   -0.034588    0.135282
  C     -0.388227    0.672155    0.049139
  C     -1.574882   -0.326819   -0.096513
  C     -2.949983    0.303845    0.271143
  C     -4.167293   -0.486874   -0.280573
  F      3.773270    0.661263    1.561452
  F      1.970359    2.066783    0.467874
  F      2.224148    1.139568   -1.497142
  F      1.004343   -1.072357   -0.715309
  F      1.140078   -0.507349    1.388970
  F     -0.578007    1.396134    1.165026
  F     -0.404293    1.496500   -1.009743
  F     -1.370350   -1.378675    0.711798
  F     -1.621974   -0.759767   -1.365861
  F     -3.023504    1.552413   -0.215655
  F     -3.063695    0.348521    1.604867
  F     -4.054402   -1.778011    0.012259
  F     -5.273603   -0.014128    0.281795
  F     -4.268062   -0.346613   -1.594991

 Multiplicity           Mult            ....    2
 Number of Electrons    NEL             ....  191
 Basis Dimension        Dim             ....  744

ORBITAL ENERGIES
----------------
                 SPIN UP ORBITALS
  NO   OCC          E(Eh)            E(eV)
   0   1.0000     -24.731901      -672.9892
   1   1.0000     -24.730865      -672.9610
   2   1.0000     -24.730586      -672.9535
   3   1.0000     -24.730015      -672.9379
   4   1.0000     -24.729950      -672.9361
   5   1.0000     -24.729778      -672.9315
   6   1.0000     -24.729382      -672.9207
   7   1.0000     -24.726025      -672.8293
   8   1.0000     -24.725606      -672.8180
   9   1.0000     -24.718158      -672.6153
  10   1.0000     -24.718068      -672.6128
  11   1.0000     -24.701835      -672.1711
  12   1.0000     -24.701081      -672.1506
  13   1.0000     -24.696716      -672.0318
  14   1.0000     -19.041387      -518.1425
  15   1.0000     -19.039513      -518.0915
  16   1.0000     -10.439321      -284.0684
  17   1.0000     -10.384651      -282.5807
  18   1.0000     -10.384165      -282.5675
  19   1.0000     -10.380132      -282.4577
  20   1.0000     -10.369037      -282.1558
  21   1.0000     -10.355850      -281.7970
  22   1.0000     -10.253207      -279.0039
  23   1.0000     -10.229804      -278.3671
  24   1.0000      -1.361086       -37.0370
  25   1.0000      -1.335290       -36.3351
  26   1.0000      -1.319006       -35.8920
  27   1.0000      -1.312609       -35.7179
  28   1.0000      -1.305625       -35.5279
  29   1.0000      -1.287788       -35.0425
  30   1.0000      -1.272382       -34.6233
  31   1.0000      -1.266268       -34.4569
  32   1.0000      -1.264623       -34.4122
  33   1.0000      -1.257695       -34.2236
  34   1.0000      -1.254558       -34.1383
  35   1.0000      -1.251215       -34.0473
  36   1.0000      -1.245986       -33.9050
  37   1.0000      -1.227651       -33.4061
  38   1.0000      -1.020506       -27.7694
  39   1.0000      -0.934337       -25.4246
  40   1.0000      -0.843110       -22.9422
  41   1.0000      -0.820589       -22.3294
  42   1.0000      -0.793760       -21.5993
  43   1.0000      -0.752589       -20.4790
  44   1.0000      -0.705979       -19.2107
  45   1.0000      -0.678035       -18.4503
  46   1.0000      -0.656804       -17.8726
  47   1.0000      -0.639802       -17.4099
  48   1.0000      -0.635255       -17.2862
  49   1.0000      -0.628032       -17.0896
  50   1.0000      -0.616286       -16.7700
  51   1.0000      -0.612767       -16.6742
  52   1.0000      -0.610640       -16.6164
  53   1.0000      -0.598204       -16.2780
  54   1.0000      -0.592715       -16.1286
  55   1.0000      -0.584625       -15.9084
  56   1.0000      -0.583493       -15.8777
  57   1.0000      -0.572993       -15.5919
  58   1.0000      -0.564012       -15.3475
  59   1.0000      -0.557705       -15.1759
  60   1.0000      -0.533665       -14.5218
  61   1.0000      -0.502713       -13.6795
  62   1.0000      -0.498708       -13.5705
  63   1.0000      -0.492681       -13.4065
  64   1.0000      -0.488806       -13.3011
  65   1.0000      -0.485893       -13.2218
  66   1.0000      -0.485363       -13.2074
  67   1.0000      -0.477914       -13.0047
  68   1.0000      -0.473345       -12.8804
  69   1.0000      -0.470184       -12.7944
  70   1.0000      -0.465608       -12.6698
  71   1.0000      -0.462118       -12.5749
  72   1.0000      -0.458163       -12.4673
  73   1.0000      -0.449314       -12.2264
  74   1.0000      -0.447756       -12.1841
  75   1.0000      -0.445920       -12.1341
  76   1.0000      -0.438161       -11.9230
  77   1.0000      -0.437294       -11.8994
  78   1.0000      -0.433710       -11.8018
  79   1.0000      -0.432246       -11.7620
  80   1.0000      -0.427123       -11.6226
  81   1.0000      -0.426592       -11.6082
  82   1.0000      -0.424666       -11.5557
  83   1.0000      -0.422749       -11.5036
  84   1.0000      -0.416126       -11.3234
  85   1.0000      -0.409091       -11.1319
  86   1.0000      -0.404110       -10.9964
  87   1.0000      -0.391501       -10.6533
  88   1.0000      -0.382423       -10.4063
  89   1.0000      -0.380111       -10.3434
  90   1.0000      -0.362179        -9.8554
  91   1.0000      -0.326959        -8.8970
  92   1.0000      -0.239842        -6.5264
  93   1.0000      -0.229926        -6.2566
  94   1.0000      -0.220539        -6.0012
  95   1.0000      -0.213029        -5.7968
  96   0.0000      -0.005453        -0.1484
  97   0.0000       0.005164         0.1405
  98   0.0000       0.037000         1.0068
  99   0.0000       0.053586         1.4582
 100   0.0000       0.082877         2.2552

                 SPIN DOWN ORBITALS
  NO   OCC          E(Eh)            E(eV)
   0   1.0000     -24.731901      -672.9892
   1   1.0000     -24.730866      -672.9611
   2   1.0000     -24.730586      -672.9535
   3   1.0000     -24.730009      -672.9378
   4   1.0000     -24.729945      -672.9360
   5   1.0000     -24.729781      -672.9315
   6   1.0000     -24.729380      -672.9206
   7   1.0000     -24.726009      -672.8289
   8   1.0000     -24.725611      -672.8181
   9   1.0000     -24.718124      -672.6143
  10   1.0000     -24.718036      -672.6120
  11   1.0000     -24.701288      -672.1562
  12   1.0000     -24.700539      -672.1358
  13   1.0000     -24.691994      -671.9033
  14   1.0000     -19.038823      -518.0727
  15   1.0000     -19.038062      -518.0520
  16   1.0000     -10.439313      -284.0681
  17   1.0000     -10.384586      -282.5790
  18   1.0000     -10.384141      -282.5668
  19   1.0000     -10.379955      -282.4529
  20   1.0000     -10.368200      -282.1331
  21   1.0000     -10.356799      -281.8228
  22   1.0000     -10.237605      -278.5794
  23   1.0000     -10.231217      -278.4056
  24   1.0000      -1.361079       -37.0368
  25   1.0000      -1.335212       -36.3330
  26   1.0000      -1.318879       -35.8885
  27   1.0000      -1.312568       -35.7168
  28   1.0000      -1.305442       -35.5229
  29   1.0000      -1.286550       -35.0088
  30   1.0000      -1.272377       -34.6231
  31   1.0000      -1.266261       -34.4567
  32   1.0000      -1.264591       -34.4113
  33   1.0000      -1.257587       -34.2207
  34   1.0000      -1.254360       -34.1329
  35   1.0000      -1.247583       -33.9484
  36   1.0000      -1.241793       -33.7909
  37   1.0000      -1.226025       -33.3618
  38   1.0000      -1.017878       -27.6979
  39   1.0000      -0.930333       -25.3157
  40   1.0000      -0.842500       -22.9256
  41   1.0000      -0.817580       -22.2475
  42   1.0000      -0.787093       -21.4179
  43   1.0000      -0.744809       -20.2673
  44   1.0000      -0.699905       -19.0454
  45   1.0000      -0.675073       -18.3697
  46   1.0000      -0.649679       -17.6787
  47   1.0000      -0.639671       -17.4063
  48   1.0000      -0.634474       -17.2649
  49   1.0000      -0.627990       -17.0885
  50   1.0000      -0.615905       -16.7596
  51   1.0000      -0.611672       -16.6444
  52   1.0000      -0.609588       -16.5877
  53   1.0000      -0.597833       -16.2679
  54   1.0000      -0.592008       -16.1094
  55   1.0000      -0.583737       -15.8843
  56   1.0000      -0.581114       -15.8129
  57   1.0000      -0.572046       -15.5662
  58   1.0000      -0.562913       -15.3176
  59   1.0000      -0.555230       -15.1086
  60   1.0000      -0.530667       -14.4402
  61   1.0000      -0.502595       -13.6763
  62   1.0000      -0.498633       -13.5685
  63   1.0000      -0.492637       -13.4053
  64   1.0000      -0.487786       -13.2733
  65   1.0000      -0.485340       -13.2068
  66   1.0000      -0.480810       -13.0835
  67   1.0000      -0.473680       -12.8895
  68   1.0000      -0.470222       -12.7954
  69   1.0000      -0.465438       -12.6652
  70   1.0000      -0.461938       -12.5700
  71   1.0000      -0.461440       -12.5564
  72   1.0000      -0.453703       -12.3459
  73   1.0000      -0.448590       -12.2068
  74   1.0000      -0.444631       -12.0990
  75   1.0000      -0.441747       -12.0205
  76   1.0000      -0.437564       -11.9067
  77   1.0000      -0.437223       -11.8974
  78   1.0000      -0.432728       -11.7751
  79   1.0000      -0.431664       -11.7462
  80   1.0000      -0.426805       -11.6140
  81   1.0000      -0.426270       -11.5994
  82   1.0000      -0.423450       -11.5227
  83   1.0000      -0.421324       -11.4648
  84   1.0000      -0.415406       -11.3038
  85   1.0000      -0.407989       -11.1019
  86   1.0000      -0.402709       -10.9583
  87   1.0000      -0.389385       -10.5957
  88   1.0000      -0.380578       -10.3560
  89   1.0000      -0.372612       -10.1393
  90   1.0000      -0.359812        -9.7910
  91   1.0000      -0.324060        -8.8181
  92   1.0000      -0.227048        -6.1783
  93   1.0000      -0.221946        -6.0395
  94   1.0000      -0.215745        -5.8707
  95   0.0000      -0.092185        -2.5085
  96   0.0000      -0.002643        -0.0719
  97   0.0000       0.006424         0.1748
  98   0.0000       0.038789         1.0555
  99   0.0000       0.057390         1.5616

MULLIKEN ATOMIC CHARGES AND SPIN POPULATIONS
--------------------------------------------
   0 C :    0.266775   -0.076923
   1 O :   -0.533390    0.081737
   2 O :   -0.540970    0.048487
   3 C :    0.043332    0.824205
   4 C :    0.436013   -0.017736
   5 C :    0.274599    0.034563
   6 C :    0.329627    0.006140
   7 C :    0.298696    0.002702
   8 C :    0.330844    0.000580
   9 C :    0.470399    0.000303
  10 F :   -0.191902    0.078429
  11 F :   -0.198593    0.008578
  12 F :   -0.180268    0.007243
  13 F :   -0.169756    0.000825
  14 F :   -0.179997    0.000296
  15 F :   -0.168919    0.000304
  16 F :   -0.167147   -0.000055
  17 F :   -0.165184    0.000083
  18 F :   -0.165164    0.000107
  19 F :   -0.163815    0.000004
  20 F :   -0.160542    0.000037
  21 F :   -0.156323   -0.000012
  22 F :   -0.154048    0.000102
  23 F :   -0.154269    0.000002
Sum of atomic charges         :   -1.0000000

LOEWDIN ATOMIC CHARGES AND SPIN POPULATIONS
-------------------------------------------
   0 C :   -0.718442    0.027251
   1 O :   -0.068862    0.070210
   2 O :   -0.074219    0.041174
   3 C :   -0.185734    0.634782
   4 C :   -0.486572    0.069257
   5 C :   -0.466196    0.027608
   6 C :   -0.470554    0.007444
   7 C :   -0.472254    0.002511
   8 C :   -0.478851    0.000852
   9 C :   -0.679639    0.000246
  10 F :    0.198272    0.097835
  11 F :    0.179288    0.009225
  12 F :    0.208064    0.009103
  13 F :    0.228629    0.000835
  14 F :    0.216921    0.001111
  15 F :    0.225991    0.000405
  16 F :    0.228313   -0.000074
  17 F :    0.230695   -0.000037
  18 F :    0.230453    0.000122
  19 F :    0.229549   -0.000013
  20 F :    0.231097    0.000042
  21 F :    0.230577   -0.000011
  22 F :    0.230808    0.000116
  23 F :    0.232666    0.000006

  Mayer bond orders larger than 0.100000
B(  0-C ,  1-O ) :   1.7951 B(  0-C ,  2-O ) :   1.8130 B(  0-C ,  3-C ) :   0.9607
B(  3-C ,  4-C ) :   0.9424 B(  3-C , 10-F ) :   1.0314 B(  4-C ,  5-C ) :   0.9306
B(  4-C , 11-F ) :   1.0310 B(  4-C , 12-F ) :   1.0869 B(  5-C ,  6-C ) :   0.9232
B(  5-C , 13-F ) :   1.0909 B(  5-C , 14-F ) :   1.0674 B(  6-C ,  7-C ) :   0.9217
B(  6-C , 15-F ) :   1.0749 B(  6-C , 16-F ) :   1.0816 B(  7-C ,  8-C ) :   0.9335
B(  7-C , 17-F ) :   1.0802 B(  7-C , 18-F ) :   1.0881 B(  8-C ,  9-C ) :   0.9533
B(  8-C , 19-F ) :   1.0829 B(  8-C , 20-F ) :   1.0979 B(  9-C , 21-F ) :   1.1290
B(  9-C , 22-F ) :   1.1329 B(  9-C , 23-F ) :   1.1429

Dispersion correction           -0.008151058
FINAL SINGLE POINT ENERGY     -1853.117460133307

DIPOLE MOMENT
-------------

Method             : SCF
Type of density    : Electron Density
Multiplicity       :   2
Irrep              :   0
Energy             : -1853.1093090750625834 Eh
Relativity type    :
Basis              : AO
                                X                 Y                 Z
Electronic contribution:    -18.389622435       3.245750895       1.817873539
Nuclear contribution   :     10.003002920      -1.691610340      -0.987966800
                        -----------------------------------------
Total Dipole Moment    :     -8.386619515       1.554140555       0.829906739
                        -----------------------------------------
Magnitude (a.u.)       :      8.569684064
Magnitude (Debye)      :     21.782405813

Rotational constants in cm-1:             0.020984             0.004247             0.004122
Rotational constants in MHz :           629.098773           127.317096           123.562153

                             ****ORCA TERMINATED NORMALLY****
TOTAL RUN TIME: 0 days 0 hours 42 minutes 20 seconds 800 msec
