                         Program Version 6.0.1  -  RELEASE   -
|  1> !TPSSh def2-TZVP opt d3 TightSCF SlowConv defgrid2
|  2>
|  3> %pal
|  4> nprocs 20
|  5> end
|  6>
|  7> %scf
|  8> MaxIter 1500
|  9> end
| 10>
| 11> %maxcore 8000
| 12>
| 13> !CPCM
| 14> %cpcm smd true
| 15> SMDsolvent "ACETONITRILE"
| 16> end
| 17>
| 18> * xyz 0 2
| 19> 6        4.790427000     -0.033865800     -0.529943200
| 20> 8        5.449345000     -1.206924000     -0.894594600
| 21> 8        4.978223000      1.323071000     -0.737377200
| 22> 6        3.506687600     -0.338741600      0.376153800
| 23> 6        2.222300000      0.400524800     -0.110681600
| 24> 6        0.900506800     -0.386389800      0.175703000
| 25> 6       -0.395261200      0.487294000      0.065549000
| 26> 6       -1.705693600     -0.364773800     -0.068373600
| 27> 6       -3.005136200      0.445344800      0.258164000
| 28> 6       -4.319880200     -0.214526000     -0.270540800
| 29> 9        3.211587400     -1.692050400      0.412735200
| 30> 9        3.741061800      0.055285800      1.689948800
| 31> 9        2.314152400      0.589704000     -1.455769200
| 32> 9        0.794028800     -1.413561400     -0.700839000
| 33> 9        0.958350600     -0.884509000      1.435093400
| 34> 9       -0.498373400      1.260265600      1.173340200
| 35> 9       -0.299075000      1.289512600     -1.020910800
| 36> 9       -1.641790400     -1.418189000      0.779523800
| 37> 9       -1.792381400     -0.831391600     -1.336863600
| 38> 9       -2.918792200      1.679227200     -0.295171200
| 39> 9       -3.119771000      0.573779800      1.598579800
| 40> 9       -4.383115600     -1.504377600      0.089127600
| 41> 9       -5.365669800      0.430528600      0.260394200
| 42> 9       -4.396020400     -0.128550600     -1.602941800
| 43> 1        5.903122371     -2.014774547     -1.145719253
| 44> *
| 45>
| 46>                          ****END OF INPUT****
 Total Charge           Charge          ....    0
 Multiplicity           Mult            ....    2
 Number of Electrons    NEL             ....  191
Dispersion correction           -0.029232091
FINAL SINGLE POINT ENERGY     -1854.293917512773
Dispersion correction             ... done (  0.0 sec)
Dispersion correction           -0.029347416
FINAL SINGLE POINT ENERGY     -1854.344113073377
Dispersion correction             ... done (  0.0 sec)
Dispersion correction           -0.029445586
FINAL SINGLE POINT ENERGY     -1854.354190721952
Dispersion correction             ... done (  0.0 sec)
FINAL SINGLE POINT ENERGY     -1854.360629170405
FINAL SINGLE POINT ENERGY     -1854.362200349088
FINAL SINGLE POINT ENERGY     -1854.363266893894
FINAL SINGLE POINT ENERGY     -1854.365715302609
FINAL SINGLE POINT ENERGY     -1854.371536815619
FINAL SINGLE POINT ENERGY     -1854.379777108523
FINAL SINGLE POINT ENERGY     -1854.383601286216
FINAL SINGLE POINT ENERGY     -1854.407443083109
FINAL SINGLE POINT ENERGY     -1854.407457012418
FINAL SINGLE POINT ENERGY     -1854.407475606230
FINAL SINGLE POINT ENERGY     -1854.407489587171
FINAL SINGLE POINT ENERGY     -1854.407513345769
FINAL SINGLE POINT ENERGY     -1854.407526326726
FINAL SINGLE POINT ENERGY     -1854.407535493903
Dispersion correction             ... done (  0.0 sec)
Dispersion correction           -0.029665427
FINAL SINGLE POINT ENERGY     -1854.407540882170
Dispersion correction             ... done (  0.1 sec)
Dispersion correction           -0.029669989
FINAL SINGLE POINT ENERGY     -1854.407544123555
Dispersion correction             ... done (  0.0 sec)
                    ***********************HURRAY********************

CARTESIAN COORDINATES (ANGSTROEM)
---------------------------------
  C      4.419319    0.377438   -0.195481
  O      5.376417   -0.368469   -0.732004
  O      4.341672    1.575648   -0.200764
  C      3.321153   -0.501178    0.462286
  C      2.195472   -0.761515   -0.487227
  C      0.807697   -1.205645   -0.138859
  C     -0.244893   -0.043964   -0.165461
  C     -1.739722   -0.507513   -0.127087
  C     -2.728234    0.624987    0.312340
  C     -4.221357    0.361913   -0.063888
  F      3.856766   -1.679762    0.915627
  F      2.855876    0.154059    1.561190
  F      2.461898   -0.633021   -1.780713
  F      0.399941   -2.153039   -1.027428
  F      0.819893   -1.745362    1.103323
  F     -0.001209    0.758832    0.894327
  F     -0.050799    0.667697   -1.297855
  F     -1.866817   -1.536289    0.738172
  F     -2.085667   -0.939223   -1.359404
  F     -2.363698    1.791868   -0.261967
  F     -2.661326    0.761707    1.652012
  F     -4.601875   -0.857094    0.332625
  F     -4.985818    1.270521    0.550030
  F     -4.409399    0.469729   -1.380752
  H      6.033543    0.219590   -1.158456

 Multiplicity           Mult            ....    2
 Number of Electrons    NEL             ....  191
 Basis Dimension        Dim             ....  750

ORBITAL ENERGIES
----------------
                 SPIN UP ORBITALS
  NO   OCC          E(Eh)            E(eV)
   0   1.0000     -24.674421      -671.4251
   1   1.0000     -24.662369      -671.0972
   2   1.0000     -24.661477      -671.0729
   3   1.0000     -24.661293      -671.0679
   4   1.0000     -24.661262      -671.0671
   5   1.0000     -24.661255      -671.0669
   6   1.0000     -24.660602      -671.0491
   7   1.0000     -24.660424      -671.0443
   8   1.0000     -24.660199      -671.0381
   9   1.0000     -24.659650      -671.0232
  10   1.0000     -24.655924      -670.9218
  11   1.0000     -24.653953      -670.8682
  12   1.0000     -24.642889      -670.5671
  13   1.0000     -24.638266      -670.4413
  14   1.0000     -19.132299      -520.6163
  15   1.0000     -19.078167      -519.1433
  16   1.0000     -10.397063      -282.9185
  17   1.0000     -10.346552      -281.5440
  18   1.0000     -10.345165      -281.5062
  19   1.0000     -10.343742      -281.4675
  20   1.0000     -10.342464      -281.4327
  21   1.0000     -10.329718      -281.0859
  22   1.0000     -10.278995      -279.7057
  23   1.0000     -10.265325      -279.3337
  24   1.0000      -1.323494       -36.0141
  25   1.0000      -1.300853       -35.3980
  26   1.0000      -1.285717       -34.9861
  27   1.0000      -1.278559       -34.7914
  28   1.0000      -1.275555       -34.7096
  29   1.0000      -1.266872       -34.4733
  30   1.0000      -1.261286       -34.3213
  31   1.0000      -1.239028       -33.7157
  32   1.0000      -1.233115       -33.5548
  33   1.0000      -1.232426       -33.5360
  34   1.0000      -1.226146       -33.3651
  35   1.0000      -1.222630       -33.2694
  36   1.0000      -1.218860       -33.1669
  37   1.0000      -1.203996       -32.7624
  38   1.0000      -1.117925       -30.4203
  39   1.0000      -1.033851       -28.1325
  40   1.0000      -0.834418       -22.7057
  41   1.0000      -0.818851       -22.2821
  42   1.0000      -0.787666       -21.4335
  43   1.0000      -0.754962       -20.5436
  44   1.0000      -0.711205       -19.3529
  45   1.0000      -0.673779       -18.3345
  46   1.0000      -0.657569       -17.8934
  47   1.0000      -0.634251       -17.2589
  48   1.0000      -0.624877       -17.0038
  49   1.0000      -0.620300       -16.8792
  50   1.0000      -0.611832       -16.6488
  51   1.0000      -0.603319       -16.4171
  52   1.0000      -0.600013       -16.3272
  53   1.0000      -0.598398       -16.2832
  54   1.0000      -0.587634       -15.9903
  55   1.0000      -0.580532       -15.7971
  56   1.0000      -0.578341       -15.7375
  57   1.0000      -0.573453       -15.6044
  58   1.0000      -0.567233       -15.4352
  59   1.0000      -0.560117       -15.2416
  60   1.0000      -0.551542       -15.0082
  61   1.0000      -0.541858       -14.7447
  62   1.0000      -0.506604       -13.7854
  63   1.0000      -0.496027       -13.4976
  64   1.0000      -0.488124       -13.2825
  65   1.0000      -0.483695       -13.1620
  66   1.0000      -0.478979       -13.0337
  67   1.0000      -0.474378       -12.9085
  68   1.0000      -0.471476       -12.8295
  69   1.0000      -0.470595       -12.8056
  70   1.0000      -0.464999       -12.6533
  71   1.0000      -0.459810       -12.5121
  72   1.0000      -0.457054       -12.4371
  73   1.0000      -0.455534       -12.3957
  74   1.0000      -0.450588       -12.2611
  75   1.0000      -0.446735       -12.1563
  76   1.0000      -0.440225       -11.9791
  77   1.0000      -0.436819       -11.8864
  78   1.0000      -0.435391       -11.8476
  79   1.0000      -0.432700       -11.7744
  80   1.0000      -0.430720       -11.7205
  81   1.0000      -0.426124       -11.5954
  82   1.0000      -0.424798       -11.5594
  83   1.0000      -0.421100       -11.4587
  84   1.0000      -0.420238       -11.4353
  85   1.0000      -0.415974       -11.3192
  86   1.0000      -0.414879       -11.2894
  87   1.0000      -0.413274       -11.2458
  88   1.0000      -0.408747       -11.1226
  89   1.0000      -0.404614       -11.0101
  90   1.0000      -0.384727       -10.4689
  91   1.0000      -0.367943       -10.0122
  92   1.0000      -0.339346        -9.2341
  93   1.0000      -0.335317        -9.1244
  94   1.0000      -0.296319        -8.0632
  95   1.0000      -0.258206        -7.0261
  96   0.0000      -0.060504        -1.6464
  97   0.0000      -0.010159        -0.2764
  98   0.0000      -0.007689        -0.2092
  99   0.0000       0.019832         0.5397
 100   0.0000       0.036492         0.9930

                 SPIN DOWN ORBITALS
  NO   OCC          E(Eh)            E(eV)
   0   1.0000     -24.669958      -671.3037
   1   1.0000     -24.662370      -671.0972
   2   1.0000     -24.661480      -671.0730
   3   1.0000     -24.661293      -671.0679
   4   1.0000     -24.661263      -671.0671
   5   1.0000     -24.661253      -671.0668
   6   1.0000     -24.660591      -671.0488
   7   1.0000     -24.660416      -671.0440
   8   1.0000     -24.660197      -671.0381
   9   1.0000     -24.659631      -671.0227
  10   1.0000     -24.655663      -670.9147
  11   1.0000     -24.653213      -670.8480
  12   1.0000     -24.642166      -670.5474
  13   1.0000     -24.636705      -670.3988
  14   1.0000     -19.132277      -520.6157
  15   1.0000     -19.078139      -519.1426
  16   1.0000     -10.397044      -282.9179
  17   1.0000     -10.346419      -281.5404
  18   1.0000     -10.345113      -281.5048
  19   1.0000     -10.344700      -281.4936
  20   1.0000     -10.341791      -281.4144
  21   1.0000     -10.330502      -281.1072
  22   1.0000     -10.278955      -279.7046
  23   1.0000     -10.249613      -278.9061
  24   1.0000      -1.323479       -36.0137
  25   1.0000      -1.300543       -35.3896
  26   1.0000      -1.284927       -34.9646
  27   1.0000      -1.278411       -34.7873
  28   1.0000      -1.273833       -34.6628
  29   1.0000      -1.262777       -34.3619
  30   1.0000      -1.256485       -34.1907
  31   1.0000      -1.238993       -33.7147
  32   1.0000      -1.233017       -33.5521
  33   1.0000      -1.232356       -33.5341
  34   1.0000      -1.225963       -33.3602
  35   1.0000      -1.222561       -33.2676
  36   1.0000      -1.217913       -33.1411
  37   1.0000      -1.201404       -32.6919
  38   1.0000      -1.117837       -30.4179
  39   1.0000      -1.033786       -28.1308
  40   1.0000      -0.826991       -22.5036
  41   1.0000      -0.810936       -22.0667
  42   1.0000      -0.784041       -21.3348
  43   1.0000      -0.753595       -20.5064
  44   1.0000      -0.706416       -19.2226
  45   1.0000      -0.671126       -18.2623
  46   1.0000      -0.656354       -17.8603
  47   1.0000      -0.631364       -17.1803
  48   1.0000      -0.623814       -16.9748
  49   1.0000      -0.619465       -16.8565
  50   1.0000      -0.611517       -16.6402
  51   1.0000      -0.601429       -16.3657
  52   1.0000      -0.598645       -16.2900
  53   1.0000      -0.596727       -16.2378
  54   1.0000      -0.586170       -15.9505
  55   1.0000      -0.577722       -15.7206
  56   1.0000      -0.577120       -15.7042
  57   1.0000      -0.572524       -15.5792
  58   1.0000      -0.562982       -15.3195
  59   1.0000      -0.559451       -15.2234
  60   1.0000      -0.550477       -14.9792
  61   1.0000      -0.540357       -14.7038
  62   1.0000      -0.495806       -13.4916
  63   1.0000      -0.488103       -13.2820
  64   1.0000      -0.484157       -13.1746
  65   1.0000      -0.480565       -13.0768
  66   1.0000      -0.476566       -12.9680
  67   1.0000      -0.472750       -12.8642
  68   1.0000      -0.471289       -12.8244
  69   1.0000      -0.469443       -12.7742
  70   1.0000      -0.463733       -12.6188
  71   1.0000      -0.459628       -12.5071
  72   1.0000      -0.456327       -12.4173
  73   1.0000      -0.454289       -12.3618
  74   1.0000      -0.449530       -12.2323
  75   1.0000      -0.445924       -12.1342
  76   1.0000      -0.439383       -11.9562
  77   1.0000      -0.435785       -11.8583
  78   1.0000      -0.433327       -11.7914
  79   1.0000      -0.431100       -11.7308
  80   1.0000      -0.428691       -11.6653
  81   1.0000      -0.425926       -11.5900
  82   1.0000      -0.424667       -11.5558
  83   1.0000      -0.420642       -11.4463
  84   1.0000      -0.419501       -11.4152
  85   1.0000      -0.415461       -11.3053
  86   1.0000      -0.413600       -11.2546
  87   1.0000      -0.412880       -11.2350
  88   1.0000      -0.407168       -11.0796
  89   1.0000      -0.403503       -10.9799
  90   1.0000      -0.382688       -10.4135
  91   1.0000      -0.366134        -9.9630
  92   1.0000      -0.339112        -9.2277
  93   1.0000      -0.333460        -9.0739
  94   1.0000      -0.295839        -8.0502
  95   0.0000      -0.135284        -3.6813
  96   0.0000      -0.058243        -1.5849
  97   0.0000      -0.007689        -0.2092
  98   0.0000      -0.003924        -0.1068
  99   0.0000       0.024783         0.6744

MULLIKEN ATOMIC CHARGES AND SPIN POPULATIONS
--------------------------------------------
   0 C :    0.227552   -0.005851
   1 O :   -0.342293   -0.000124
   2 O :   -0.291750    0.000835
   3 C :    0.409842   -0.004091
   4 C :    0.101223    0.851036
   5 C :    0.335547   -0.022887
   6 C :    0.275900    0.029261
   7 C :    0.272722    0.005661
   8 C :    0.296976    0.002198
   9 C :    0.408426    0.000718
  10 F :   -0.173009    0.028870
  11 F :   -0.166126    0.012172
  12 F :   -0.130516    0.084528
  13 F :   -0.156377    0.013617
  14 F :   -0.152510    0.003813
  15 F :   -0.153575   -0.000384
  16 F :   -0.153224   -0.000127
  17 F :   -0.149003   -0.000179
  18 F :   -0.149303    0.000155
  19 F :   -0.146813   -0.000024
  20 F :   -0.143917    0.000067
  21 F :   -0.135657   -0.000025
  22 F :   -0.132456    0.000231
  23 F :   -0.133034    0.000012
  24 H :    0.381373    0.000518
Sum of atomic charges         :    0.0000000

LOEWDIN ATOMIC CHARGES AND SPIN POPULATIONS
-------------------------------------------
   0 C :   -0.486583    0.001576
   1 O :    0.155378    0.000501
   2 O :    0.133503    0.000919
   3 C :   -0.462004    0.060138
   4 C :   -0.153226    0.660460
   5 C :   -0.478845    0.063796
   6 C :   -0.454682    0.023553
   7 C :   -0.459867    0.005734
   8 C :   -0.466114    0.001967
   9 C :   -0.668041    0.000542
  10 F :    0.178224    0.033427
  11 F :    0.199107    0.016378
  12 F :    0.262015    0.109181
  13 F :    0.209799    0.014651
  14 F :    0.221172    0.005199
  15 F :    0.225680    0.000481
  16 F :    0.225382    0.000758
  17 F :    0.226548   -0.000121
  18 F :    0.225634    0.000259
  19 F :    0.225223   -0.000060
  20 F :    0.226263    0.000090
  21 F :    0.226543   -0.000021
  22 F :    0.227043    0.000263
  23 F :    0.228505    0.000019
  24 H :    0.233345    0.000312

  Mayer bond orders larger than 0.100000
B(  0-C ,  1-O ) :   1.3114 B(  0-C ,  2-O ) :   2.0728 B(  0-C ,  3-C ) :   0.8899
B(  1-O , 24-H ) :   0.8204 B(  3-C ,  4-C ) :   1.0450 B(  3-C , 10-F ) :   1.0857
B(  3-C , 11-F ) :   1.0898 B(  4-C ,  5-C ) :   1.0589 B(  4-C , 12-F ) :   1.1322
B(  5-C ,  6-C ) :   0.9406 B(  5-C , 13-F ) :   1.0799 B(  5-C , 14-F ) :   1.1014
B(  6-C ,  7-C ) :   0.9381 B(  6-C , 15-F ) :   1.0943 B(  6-C , 16-F ) :   1.0912
B(  7-C ,  8-C ) :   0.9402 B(  7-C , 17-F ) :   1.0961 B(  7-C , 18-F ) :   1.1025
B(  8-C ,  9-C ) :   0.9700 B(  8-C , 19-F ) :   1.1005 B(  8-C , 20-F ) :   1.1116
B(  9-C , 21-F ) :   1.1591 B(  9-C , 22-F ) :   1.1626 B(  9-C , 23-F ) :   1.1709

Dispersion correction           -0.029671789
FINAL SINGLE POINT ENERGY     -1854.407545998650

DIPOLE MOMENT
-------------

Method             : SCF
Type of density    : Electron Density
Multiplicity       :   2
Irrep              :   0
Energy             : -1854.3778742092210905 Eh
Relativity type    :
Basis              : AO
                                X                 Y                 Z
Electronic contribution:    -14.692309420      -1.688997176       1.159257266
Nuclear contribution   :     15.785892072       1.494968307      -1.960019384
                        -----------------------------------------
Total Dipole Moment    :      1.093582653      -0.194028869      -0.800762117
                        -----------------------------------------
Magnitude (a.u.)       :      1.369229779
Magnitude (Debye)      :      3.480305515

Rotational constants in cm-1:             0.020422             0.004047             0.003969
Rotational constants in MHz :           612.249163           121.330956           118.977550

                             ****ORCA TERMINATED NORMALLY****
TOTAL RUN TIME: 0 days 0 hours 59 minutes 39 seconds 389 msec
