                         Program Version 6.0.1  -  RELEASE   -
|  1> !r2scanh def2-TZVP freq d3 TightSCF SlowConv defgrid2
|  2>
|  3> %pal
|  4> nprocs 20
|  5> end
|  6>
|  7> %scf
|  8> MaxIter 1500
|  9> end
| 10>
| 11> %maxcore 8000
| 12>
| 13> !CPCM
| 14> %cpcm smd true
| 15> SMDsolvent "ACETONITRILE"
| 16> end
| 17>
| 18> * xyz -1 1
| 19> 6        6.831820000     27.877865000      2.872044000
| 20> 6        6.061833000     26.598632000      2.443760000
| 21> 6        6.994178000     25.415713000      2.049245000
| 22> 6        6.269570000     24.037018000      2.078859000
| 23> 6        7.025431000     22.937417000      1.271829000
| 24> 6        6.594179000     21.491759000      1.653433000
| 25> 6        6.968235000     20.410999000      0.612131000
| 26> 6        6.914381000     18.966161000      1.226300000
| 27> 9        7.783920000     28.162216000      1.989659000
| 28> 9        7.380757000     27.719436000      4.068308000
| 29> 9        5.980021000     28.894403000      2.926785000
| 30> 9        5.274978000     26.234001000      3.467826000
| 31> 9        5.293434000     26.914487000      1.393939000
| 32> 9        7.459080000     25.643213000      0.811326000
| 33> 9        8.031018000     25.377506000      2.900074000
| 34> 9        6.153777000     23.649479000      3.357947000
| 35> 9        5.042073000     24.187533000      1.556346000
| 36> 9        6.785058000     23.141419000     -0.033308000
| 37> 9        8.343610000     23.073152000      1.495460000
| 38> 9        7.188462000     21.180507000      2.822795000
| 39> 9        5.260441000     21.487117000      1.839767000
| 40> 9        6.104555000     20.520440000     -0.431939000
| 41> 9        8.201760000     20.712117000      0.136672000
| 42> 8        8.002437000     18.429102000      1.421859000
| 43> 8        5.753942000     18.568465000      1.447732000
| 44> 8        3.310426000     19.410049000      0.522352000
| 45> 1        3.420232000     20.305716000      0.192051000
| 46> 1        4.203945000     19.162681000      0.838257000
| 47> *
| 48>
| 49>                          ****END OF INPUT****

CARTESIAN COORDINATES (ANGSTROEM)
---------------------------------
  C      6.831820   27.877865    2.872044
  C      6.061833   26.598632    2.443760
  C      6.994178   25.415713    2.049245
  C      6.269570   24.037018    2.078859
  C      7.025431   22.937417    1.271829
  C      6.594179   21.491759    1.653433
  C      6.968235   20.410999    0.612131
  C      6.914381   18.966161    1.226300
  F      7.783920   28.162216    1.989659
  F      7.380757   27.719436    4.068308
  F      5.980021   28.894403    2.926785
  F      5.274978   26.234001    3.467826
  F      5.293434   26.914487    1.393939
  F      7.459080   25.643213    0.811326
  F      8.031018   25.377506    2.900074
  F      6.153777   23.649479    3.357947
  F      5.042073   24.187533    1.556346
  F      6.785058   23.141419   -0.033308
  F      8.343610   23.073152    1.495460
  F      7.188462   21.180507    2.822795
  F      5.260441   21.487117    1.839767
  F      6.104555   20.520440   -0.431939
  F      8.201760   20.712117    0.136672
  O      8.002437   18.429102    1.421859
  O      5.753942   18.568465    1.447732
  O      3.310426   19.410049    0.522352
  H      3.420232   20.305716    0.192051
  H      4.203945   19.162681    0.838257

 Total Charge           Charge          ....   -1
 Multiplicity           Mult            ....    1
 Number of Electrons    NEL             ....  210
 Basis Dimension        Dim             ....  818

ORBITAL ENERGIES
----------------

  NO   OCC          E(Eh)            E(eV)
   0   2.0000     -24.732378      -673.0022
   1   2.0000     -24.731870      -672.9884
   2   2.0000     -24.731796      -672.9864
   3   2.0000     -24.731673      -672.9830
   4   2.0000     -24.731151      -672.9688
   5   2.0000     -24.730730      -672.9574
   6   2.0000     -24.730458      -672.9500
   7   2.0000     -24.729486      -672.9235
   8   2.0000     -24.729326      -672.9192
   9   2.0000     -24.724646      -672.7918
  10   2.0000     -24.724042      -672.7754
  11   2.0000     -24.715337      -672.5385
  12   2.0000     -24.714547      -672.5170
  13   2.0000     -24.691928      -671.9015
  14   2.0000     -24.691650      -671.8939
  15   2.0000     -19.072526      -518.9898
  16   2.0000     -19.063032      -518.7315
  17   2.0000     -19.059289      -518.6296
  18   2.0000     -10.440031      -284.0877
  19   2.0000     -10.386915      -282.6423
  20   2.0000     -10.385366      -282.6002
  21   2.0000     -10.384136      -282.5667
  22   2.0000     -10.377971      -282.3990
  23   2.0000     -10.363940      -282.0172
  24   2.0000     -10.329600      -281.0827
  25   2.0000     -10.245215      -278.7865
  26   2.0000      -1.361819       -37.0570
  27   2.0000      -1.338688       -36.4276
  28   2.0000      -1.323513       -36.0146
  29   2.0000      -1.314888       -35.7799
  30   2.0000      -1.311767       -35.6950
  31   2.0000      -1.301843       -35.4250
  32   2.0000      -1.275982       -34.7212
  33   2.0000      -1.273606       -34.6566
  34   2.0000      -1.267336       -34.4860
  35   2.0000      -1.266720       -34.4692
  36   2.0000      -1.260257       -34.2933
  37   2.0000      -1.256558       -34.1927
  38   2.0000      -1.253383       -34.1063
  39   2.0000      -1.243428       -33.8354
  40   2.0000      -1.217439       -33.1282
  41   2.0000      -1.041829       -28.3496
  42   2.0000      -0.974082       -26.5061
  43   2.0000      -0.955762       -26.0076
  44   2.0000      -0.845976       -23.0202
  45   2.0000      -0.824104       -22.4250
  46   2.0000      -0.794339       -21.6151
  47   2.0000      -0.755625       -20.5616
  48   2.0000      -0.712354       -19.3842
  49   2.0000      -0.682403       -18.5691
  50   2.0000      -0.665543       -18.1104
  51   2.0000      -0.642248       -17.4764
  52   2.0000      -0.637643       -17.3511
  53   2.0000      -0.629388       -17.1265
  54   2.0000      -0.621283       -16.9060
  55   2.0000      -0.617274       -16.7969
  56   2.0000      -0.615697       -16.7540
  57   2.0000      -0.603002       -16.4085
  58   2.0000      -0.598873       -16.2962
  59   2.0000      -0.595017       -16.1912
  60   2.0000      -0.587792       -15.9946
  61   2.0000      -0.576237       -15.6802
  62   2.0000      -0.574299       -15.6275
  63   2.0000      -0.568068       -15.4579
  64   2.0000      -0.561376       -15.2758
  65   2.0000      -0.545582       -14.8460
  66   2.0000      -0.504619       -13.7314
  67   2.0000      -0.501126       -13.6363
  68   2.0000      -0.495208       -13.4753
  69   2.0000      -0.494918       -13.4674
  70   2.0000      -0.491156       -13.3650
  71   2.0000      -0.486792       -13.2463
  72   2.0000      -0.483937       -13.1686
  73   2.0000      -0.480336       -13.0706
  74   2.0000      -0.473526       -12.8853
  75   2.0000      -0.470063       -12.7911
  76   2.0000      -0.467624       -12.7247
  77   2.0000      -0.464557       -12.6412
  78   2.0000      -0.458975       -12.4893
  79   2.0000      -0.457298       -12.4437
  80   2.0000      -0.450804       -12.2670
  81   2.0000      -0.449458       -12.2304
  82   2.0000      -0.446820       -12.1586
  83   2.0000      -0.439156       -11.9500
  84   2.0000      -0.438111       -11.9216
  85   2.0000      -0.435557       -11.8521
  86   2.0000      -0.431388       -11.7387
  87   2.0000      -0.430286       -11.7087
  88   2.0000      -0.426745       -11.6123
  89   2.0000      -0.426507       -11.6058
  90   2.0000      -0.422538       -11.4978
  91   2.0000      -0.421565       -11.4714
  92   2.0000      -0.414234       -11.2719
  93   2.0000      -0.406213       -11.0536
  94   2.0000      -0.403951       -10.9921
  95   2.0000      -0.400079       -10.8867
  96   2.0000      -0.388993       -10.5850
  97   2.0000      -0.386050       -10.5050
  98   2.0000      -0.360027        -9.7968
  99   2.0000      -0.344461        -9.3733
 100   2.0000      -0.326689        -8.8897
 101   2.0000      -0.270358        -7.3568
 102   2.0000      -0.252830        -6.8799
 103   2.0000      -0.239138        -6.5073
 104   2.0000      -0.233968        -6.3666
 105   0.0000      -0.017063        -0.4643
 106   0.0000      -0.001602        -0.0436
 107   0.0000       0.016346         0.4448
 108   0.0000       0.044577         1.2130
 109   0.0000       0.051081         1.3900

MULLIKEN ATOMIC CHARGES
-----------------------
   0 C :    0.471195
   1 C :    0.328986
   2 C :    0.300041
   3 C :    0.325382
   4 C :    0.326016
   5 C :    0.295964
   6 C :    0.318585
   7 C :    0.276137
   8 F :   -0.155983
   9 F :   -0.153967
  10 F :   -0.153259
  11 F :   -0.163036
  12 F :   -0.159614
  13 F :   -0.163710
  14 F :   -0.163766
  15 F :   -0.164880
  16 F :   -0.165458
  17 F :   -0.168594
  18 F :   -0.170150
  19 F :   -0.181202
  20 F :   -0.182172
  21 F :   -0.208686
  22 F :   -0.202105
  23 O :   -0.486966
  24 O :   -0.551053
  25 O :   -0.741277
  26 H :    0.334707
  27 H :    0.358863
Sum of atomic charges:   -1.0000000

LOEWDIN ATOMIC CHARGES
----------------------
   0 C :   -0.679758
   1 C :   -0.478998
   2 C :   -0.472513
   3 C :   -0.470799
   4 C :   -0.469724
   5 C :   -0.470000
   6 C :   -0.455221
   7 C :   -0.672360
   8 F :    0.230680
   9 F :    0.232945
  10 F :    0.232126
  11 F :    0.230319
  12 F :    0.232324
  13 F :    0.232364
  14 F :    0.231728
  15 F :    0.231475
  16 F :    0.229952
  17 F :    0.226650
  18 F :    0.224937
  19 F :    0.215711
  20 F :    0.218217
  21 F :    0.171644
  22 F :    0.180375
  23 O :   -0.022510
  24 O :   -0.048465
  25 O :   -0.363134
  26 H :    0.147772
  27 H :    0.134263

  Mayer bond orders larger than 0.100000
B(  0-C ,  1-C ) :   0.9538 B(  0-C ,  8-F ) :   1.1278 B(  0-C ,  9-F ) :   1.1426
B(  0-C , 10-F ) :   1.1344 B(  1-C ,  2-C ) :   0.9356 B(  1-C , 11-F ) :   1.0829
B(  1-C , 12-F ) :   1.0989 B(  2-C ,  3-C ) :   0.9288 B(  2-C , 13-F ) :   1.0809
B(  2-C , 14-F ) :   1.0892 B(  3-C ,  4-C ) :   0.9360 B(  3-C , 15-F ) :   1.0807
B(  3-C , 16-F ) :   1.0794 B(  4-C ,  5-C ) :   0.9232 B(  4-C , 17-F ) :   1.0826
B(  4-C , 18-F ) :   1.0720 B(  5-C ,  6-C ) :   0.9261 B(  5-C , 19-F ) :   1.0696
B(  5-C , 20-F ) :   1.0575 B(  6-C ,  7-C ) :   0.8617 B(  6-C , 21-F ) :   1.0259
B(  6-C , 22-F ) :   1.0466 B(  7-C , 23-O ) :   1.8940 B(  7-C , 24-O ) :   1.6534
B( 24-O , 27-H ) :   0.1106 B( 25-O , 26-H ) :   0.8998 B( 25-O , 27-H ) :   0.8188

Dispersion correction           -0.009461321
FINAL SINGLE POINT ENERGY     -2029.451901927468

DIPOLE MOMENT
-------------

Method             : SCF
Type of density    : Electron Density
Multiplicity       :   1
Irrep              :   0
Energy             : -2029.4424406059911234 Eh
Relativity type    :
Basis              : AO
                                X                 Y                 Z
Electronic contribution:      7.541638664      28.608619104       4.929247951
Nuclear contribution   :     -6.867281094     -19.577823070      -3.988283406
                        -----------------------------------------
Total Dipole Moment    :      0.674357571       9.030796035       0.940964545
                        -----------------------------------------
Magnitude (a.u.)       :      9.104693813
Magnitude (Debye)      :     23.142292525

VIBRATIONAL FREQUENCIES
-----------------------

Scaling factor for frequencies =  1.000000000  (already applied!)

     0:       0.00 cm**-1
     1:       0.00 cm**-1
     2:       0.00 cm**-1
     3:       0.00 cm**-1
     4:       0.00 cm**-1
     5:       0.00 cm**-1
     6:      24.90 cm**-1
     7:      25.43 cm**-1
     8:      35.26 cm**-1
     9:      45.24 cm**-1
    10:      47.06 cm**-1
    11:      54.67 cm**-1
    12:      64.62 cm**-1
    13:      72.09 cm**-1
    14:      77.17 cm**-1
    15:      85.93 cm**-1
    16:     117.50 cm**-1
    17:     135.02 cm**-1
    18:     139.13 cm**-1
    19:     162.33 cm**-1
    20:     183.66 cm**-1
    21:     189.74 cm**-1
    22:     202.40 cm**-1
    23:     206.55 cm**-1
    24:     213.04 cm**-1
    25:     234.59 cm**-1
    26:     246.77 cm**-1
    27:     257.05 cm**-1
    28:     258.30 cm**-1
    29:     270.84 cm**-1
    30:     287.50 cm**-1
    31:     306.90 cm**-1
    32:     316.49 cm**-1
    33:     338.17 cm**-1
    34:     351.01 cm**-1
    35:     364.60 cm**-1
    36:     368.74 cm**-1
    37:     374.46 cm**-1
    38:     376.72 cm**-1
    39:     381.21 cm**-1
    40:     413.86 cm**-1
    41:     448.30 cm**-1
    42:     471.90 cm**-1
    43:     515.80 cm**-1
    44:     531.86 cm**-1
    45:     545.20 cm**-1
    46:     561.66 cm**-1
    47:     565.27 cm**-1
    48:     585.62 cm**-1
    49:     605.14 cm**-1
    50:     619.95 cm**-1
    51:     649.45 cm**-1
    52:     670.07 cm**-1
    53:     692.39 cm**-1
    54:     709.05 cm**-1
    55:     731.32 cm**-1
    56:     736.89 cm**-1
    57:     780.07 cm**-1
    58:     812.21 cm**-1
    59:     887.66 cm**-1
    60:    1017.58 cm**-1
    61:    1107.35 cm**-1
    62:    1121.20 cm**-1
    63:    1136.26 cm**-1
    64:    1140.65 cm**-1
    65:    1150.65 cm**-1
    66:    1159.60 cm**-1
    67:    1169.46 cm**-1
    68:    1173.75 cm**-1
    69:    1180.41 cm**-1
    70:    1188.34 cm**-1
    71:    1192.95 cm**-1
    72:    1208.30 cm**-1
    73:    1218.55 cm**-1
    74:    1246.87 cm**-1
    75:    1274.74 cm**-1
    76:    1296.09 cm**-1
    77:    1315.23 cm**-1
    78:    1368.71 cm**-1
    79:    1403.90 cm**-1
    80:    1677.81 cm**-1
    81:    1753.86 cm**-1
    82:    3463.33 cm**-1
    83:    3858.18 cm**-1

IR SPECTRUM
-----------

 Mode   freq       eps      Int      T**2         TX        TY        TZ
       cm**-1   L/(mol*cm) km/mol    a.u.
----------------------------------------------------------------------------
  6:     24.90   0.000083    0.42  0.001046  ( 0.027029 -0.014457  0.010306)
  7:     25.43   0.000457    2.31  0.005606  (-0.060315  0.012353 -0.042611)
  8:     35.26   0.000448    2.27  0.003968  (-0.026051  0.017503  0.054621)
  9:     45.24   0.000192    0.97  0.001325  (-0.034981 -0.004892  0.008797)
 10:     47.06   0.000012    0.06  0.000077  ( 0.003380 -0.001148  0.007992)
 11:     54.67   0.000052    0.26  0.000298  ( 0.006981  0.008863 -0.013069)
 12:     64.62   0.000138    0.70  0.000665  (-0.007725  0.020786  0.013181)
 13:     72.09   0.000741    3.75  0.003209  ( 0.020170  0.000251 -0.052932)
 14:     77.17   0.000052    0.26  0.000212  ( 0.002374 -0.011130 -0.009078)
 15:     85.93   0.001035    5.23  0.003757  (-0.000525 -0.047256 -0.039038)
 16:    117.50   0.000931    4.70  0.002472  (-0.012162 -0.025250 -0.041071)
 17:    135.02   0.008652   43.72  0.019995  ( 0.036808 -0.039449 -0.130707)
 18:    139.13   0.019827  100.20  0.044472  (-0.040013  0.089420  0.186748)
 19:    162.33   0.000666    3.36  0.001280  ( 0.013140  0.015144  0.029627)
 20:    183.66   0.002106   10.65  0.003579  ( 0.058841 -0.005836 -0.009100)
 21:    189.74   0.003904   19.73  0.006420  ( 0.051064 -0.012417  0.060487)
 22:    202.40   0.000154    0.78  0.000237  (-0.008977 -0.006563 -0.010664)
 23:    206.55   0.000155    0.78  0.000234  ( 0.014240 -0.005561  0.000316)
 24:    213.04   0.001075    5.43  0.001575  ( 0.036228  0.004433 -0.015587)
 25:    234.59   0.000117    0.59  0.000156  (-0.011582 -0.004255 -0.001968)
 26:    246.77   0.000023    0.12  0.000029  ( 0.003453  0.003136  0.002674)
 27:    257.05   0.000125    0.63  0.000152  ( 0.009075 -0.007147  0.004277)
 28:    258.30   0.000105    0.53  0.000126  ( 0.010701 -0.001424 -0.003135)
 29:    270.84   0.000719    3.63  0.000828  ( 0.025316  0.012293  0.006022)
 30:    287.50   0.001296    6.55  0.001407  ( 0.012386 -0.033947 -0.010071)
 31:    306.90   0.000079    0.40  0.000080  ( 0.005208 -0.005760  0.004464)
 32:    316.49   0.000133    0.67  0.000131  (-0.004941  0.001818  0.010152)
 33:    338.17   0.000140    0.71  0.000130  ( 0.002714 -0.009737 -0.005239)
 34:    351.01   0.000536    2.71  0.000477  (-0.010328 -0.006991 -0.017918)
 35:    364.60   0.000517    2.61  0.000443  (-0.012579  0.004261 -0.016316)
 36:    368.74   0.000206    1.04  0.000174  (-0.001235  0.013148 -0.000078)
 37:    374.46   0.000170    0.86  0.000141  ( 0.003674 -0.011302  0.000340)
 38:    376.72   0.001252    6.32  0.001037  (-0.001615  0.032075  0.002317)
 39:    381.21   0.000043    0.22  0.000035  ( 0.000523 -0.005557 -0.002003)
 40:    413.86   0.001310    6.62  0.000988  ( 0.027447 -0.010843  0.010813)
 41:    448.30   0.018369   92.83  0.012787  (-0.074159  0.065713 -0.054491)
 42:    471.90   0.001779    8.99  0.001177  ( 0.022311 -0.025985 -0.001881)
 43:    515.80   0.012809   64.73  0.007750  ( 0.015894 -0.083755 -0.021961)
 44:    531.86   0.008456   42.73  0.004961  (-0.027059  0.060207  0.024583)
 45:    545.20   0.008085   40.86  0.004628  ( 0.000384 -0.053912 -0.041485)
 46:    561.66   0.010984   55.51  0.006103  (-0.035934 -0.067894  0.014213)
 47:    565.27   0.000941    4.76  0.000520  (-0.005489  0.013807  0.017286)
 48:    585.62   0.001826    9.23  0.000973  (-0.019177  0.019885 -0.014495)
 49:    605.14   0.002981   15.06  0.001537  (-0.000432 -0.037051 -0.012814)
 50:    619.95   0.000422    2.13  0.000212  (-0.007497  0.007063  0.010307)
 51:    649.45   0.023580  119.16  0.011330  ( 0.006210  0.102826  0.026807)
 52:    670.07   0.017039   86.11  0.007936  ( 0.011660 -0.087936 -0.008175)
 53:    692.39   0.001824    9.22  0.000822  ( 0.005036  0.027975  0.003737)
 54:    709.05   0.025982  131.30  0.011435  ( 0.024696 -0.043017 -0.094735)
 55:    731.32   0.000314    1.59  0.000134  (-0.006923  0.005863 -0.007196)
 56:    736.89   0.005208   26.32  0.002205  ( 0.000590 -0.044792 -0.014097)
 57:    780.07   0.000864    4.36  0.000345  ( 0.011600 -0.014256  0.002774)
 58:    812.21   0.018374   92.85  0.007059  ( 0.003809 -0.069287  0.047374)
 59:    887.66   0.003985   20.14  0.001401  (-0.008579  0.036433  0.000347)
 60:   1017.58   0.010056   50.82  0.003084  (-0.000734 -0.044292 -0.033489)
 61:   1107.35   0.015622   78.95  0.004402  ( 0.043320  0.044690 -0.022990)
 62:   1121.20   0.046044  232.69  0.012815  ( 0.093260  0.000908  0.064165)
 63:   1136.26   0.009059   45.78  0.002488  ( 0.016451 -0.004707 -0.046852)
 64:   1140.65   0.018266   92.31  0.004997  ( 0.006822  0.006477 -0.070064)
 65:   1150.65   0.052659  266.12  0.014281  ( 0.089749  0.042962 -0.066188)
 66:   1159.60   0.111120  561.55  0.029904  (-0.170041 -0.015751  0.027238)
 67:   1169.46   0.006939   35.07  0.001852  (-0.034855 -0.002950  0.025063)
 68:   1173.75   0.057506  290.61  0.015289  (-0.094986  0.001694 -0.079145)
 69:   1180.41   0.097543  492.94  0.025787  (-0.070792  0.023096 -0.142276)
 70:   1188.34   0.091567  462.74  0.024046  ( 0.109934 -0.013507 -0.108526)
 71:   1192.95   0.079413  401.32  0.020774  ( 0.080171 -0.050435  0.108640)
 72:   1208.30   0.087638  442.89  0.022634  (-0.020761  0.050751 -0.140098)
 73:   1218.55   0.006327   31.98  0.001620  ( 0.034041 -0.003438  0.021207)
 74:   1246.87   0.010849   54.83  0.002715  (-0.022639  0.043566 -0.017459)
 75:   1274.74   0.001775    8.97  0.000435  ( 0.017243 -0.011705  0.000482)
 76:   1296.09   0.005035   25.45  0.001212  ( 0.027677 -0.021126 -0.000060)
 77:   1315.23   0.007794   39.39  0.001849  ( 0.023475 -0.014565 -0.032956)
 78:   1368.71   0.048360  244.39  0.011026  (-0.021207 -0.102614 -0.006828)
 79:   1403.90   0.022187  112.12  0.004932  (-0.025414 -0.064228  0.012675)
 80:   1677.81   0.032778  165.64  0.006096  (-0.069789 -0.034978 -0.001584)
 81:   1753.86   0.182298  921.26  0.032436  (-0.177912  0.027396 -0.005744)
 82:   3463.33   0.211823  1070.46  0.019086  ( 0.129814 -0.027954  0.038120)
 83:   3858.18   0.014136   71.44  0.001143  ( 0.015882 -0.026345  0.014038)

--------------------------
THERMOCHEMISTRY AT 298.15K
--------------------------

Temperature         ...   298.15 K
Pressure            ...     1.00 atm
Total Mass          ...   431.07 AMU
Quasi RRHO          ...     True
Cut-Off Frequency   ...     1.00 cm^-1

Throughout the following assumptions are being made:
  (1) The electronic state is orbitally nondegenerate
  (2) There are no thermally accessible electronically excited states
  (3) Hindered rotations indicated by low frequency modes are not
      treated as such but are treated as vibrations and this may
      cause some error
  (4) All equations used are the standard statistical mechanics
      equations for an ideal gas
  (5) All vibrations are strictly harmonic

freq.      24.90  E(vib)   ...       0.56
freq.      25.43  E(vib)   ...       0.56
freq.      35.26  E(vib)   ...       0.54
freq.      45.24  E(vib)   ...       0.53
freq.      47.06  E(vib)   ...       0.53
freq.      54.67  E(vib)   ...       0.52
freq.      64.62  E(vib)   ...       0.50
freq.      72.09  E(vib)   ...       0.50
freq.      77.17  E(vib)   ...       0.49
freq.      85.93  E(vib)   ...       0.48
freq.     117.50  E(vib)   ...       0.44
freq.     135.02  E(vib)   ...       0.42
freq.     139.13  E(vib)   ...       0.42
freq.     162.33  E(vib)   ...       0.39
freq.     183.66  E(vib)   ...       0.37
freq.     189.74  E(vib)   ...       0.36
freq.     202.40  E(vib)   ...       0.35
freq.     206.55  E(vib)   ...       0.35
freq.     213.04  E(vib)   ...       0.34
freq.     234.59  E(vib)   ...       0.32
freq.     246.77  E(vib)   ...       0.31
freq.     257.05  E(vib)   ...       0.30
freq.     258.30  E(vib)   ...       0.30
freq.     270.84  E(vib)   ...       0.29
freq.     287.50  E(vib)   ...       0.27
freq.     306.90  E(vib)   ...       0.26
freq.     316.49  E(vib)   ...       0.25
freq.     338.17  E(vib)   ...       0.24
freq.     351.01  E(vib)   ...       0.23
freq.     364.60  E(vib)   ...       0.22
freq.     368.74  E(vib)   ...       0.21
freq.     374.46  E(vib)   ...       0.21
freq.     376.72  E(vib)   ...       0.21
freq.     381.21  E(vib)   ...       0.21
freq.     413.86  E(vib)   ...       0.19
freq.     448.30  E(vib)   ...       0.17
freq.     471.90  E(vib)   ...       0.15
freq.     515.80  E(vib)   ...       0.13
freq.     531.86  E(vib)   ...       0.13
freq.     545.20  E(vib)   ...       0.12
freq.     561.66  E(vib)   ...       0.11
freq.     565.27  E(vib)   ...       0.11
freq.     585.62  E(vib)   ...       0.11
freq.     605.14  E(vib)   ...       0.10
freq.     619.95  E(vib)   ...       0.09
freq.     649.45  E(vib)   ...       0.08
freq.     670.07  E(vib)   ...       0.08
freq.     692.39  E(vib)   ...       0.07
freq.     709.05  E(vib)   ...       0.07
freq.     731.32  E(vib)   ...       0.06
freq.     736.89  E(vib)   ...       0.06
freq.     780.07  E(vib)   ...       0.05
freq.     812.21  E(vib)   ...       0.05
freq.     887.66  E(vib)   ...       0.04
freq.    1017.58  E(vib)   ...       0.02
freq.    1107.35  E(vib)   ...       0.02
freq.    1121.20  E(vib)   ...       0.01
freq.    1136.26  E(vib)   ...       0.01
freq.    1140.65  E(vib)   ...       0.01
freq.    1150.65  E(vib)   ...       0.01
freq.    1159.60  E(vib)   ...       0.01
freq.    1169.46  E(vib)   ...       0.01
freq.    1173.75  E(vib)   ...       0.01
freq.    1180.41  E(vib)   ...       0.01
freq.    1188.34  E(vib)   ...       0.01
freq.    1192.95  E(vib)   ...       0.01
freq.    1208.30  E(vib)   ...       0.01
freq.    1218.55  E(vib)   ...       0.01
freq.    1246.87  E(vib)   ...       0.01
freq.    1274.74  E(vib)   ...       0.01
freq.    1296.09  E(vib)   ...       0.01
freq.    1315.23  E(vib)   ...       0.01
freq.    1368.71  E(vib)   ...       0.01
freq.    1403.90  E(vib)   ...       0.00
freq.    1677.81  E(vib)   ...       0.00
freq.    1753.86  E(vib)   ...       0.00
freq.    3463.33  E(vib)   ...       0.00
freq.    3858.18  E(vib)   ...       0.00

------------
INNER ENERGY
------------

The inner energy is: U= E(el) + E(ZPE) + E(vib) + E(rot) + E(trans)
    E(el)   - is the total energy from the electronic structure calculation
              = E(kin-el) + E(nuc-el) + E(el-el) + E(nuc-nuc)
    E(ZPE)  - the the zero temperature vibrational energy from the frequency calculation
    E(vib)  - the the finite temperature correction to E(ZPE) due to population
              of excited vibrational states
    E(rot)  - is the rotational thermal energy
    E(trans)- is the translational thermal energy

Summary of contributions to the inner energy U:
Electronic energy                ...  -2029.45190193 Eh
Zero point energy                ...      0.12341410 Eh      77.44 kcal/mol
Thermal vibrational correction   ...      0.02333677 Eh      14.64 kcal/mol
Thermal rotational correction    ...      0.00141627 Eh       0.89 kcal/mol
Thermal translational correction ...      0.00141627 Eh       0.89 kcal/mol
-----------------------------------------------------------------------
Total thermal energy                  -2029.30231851 Eh

Summary of corrections to the electronic energy:
(perhaps to be used in another calculation)
Total thermal correction                  0.02616931 Eh      16.42 kcal/mol
Non-thermal (ZPE) correction              0.12341410 Eh      77.44 kcal/mol
-----------------------------------------------------------------------
Total correction                          0.14958341 Eh      93.86 kcal/mol

--------
ENTHALPY
--------

The enthalpy is H = U + kB*T
                kB is Boltzmann's constant
Total thermal energy              ...  -2029.30231851 Eh
Thermal Enthalpy correction       ...      0.00094421 Eh       0.59 kcal/mol
-----------------------------------------------------------------------
Total Enthalpy                    ...  -2029.30137430 Eh

Note: Only C1 symmetry has been detected, increase convergence thresholds
      if your molecule has a higher symmetry. Symmetry factor of 1.0 is
      used for the rotational entropy correction.

Note: Rotational entropy computed according to Herzberg
Infrared and Raman Spectra, Chapter V,1, Van Nostrand Reinhold, 1945
Point Group:  C1, Symmetry Number:   1
Rotational constants in cm-1:     0.017133     0.003500     0.003341

Vibrational entropy computed according to the QRRHO of S. Grimme
Chem.Eur.J. 2012 18 9955 using a reference frequency of 100.0 cm-1

-------
ENTROPY
-------

The entropy contributions are T*S = T*(S(el)+S(vib)+S(rot)+S(trans))
     S(el)   - electronic entropy

                             ****ORCA TERMINATED NORMALLY****
TOTAL RUN TIME: 0 days 0 hours 17 minutes 59 seconds 563 msec
