                         Program Version 6.0.1  -  RELEASE   -
|  1> !TPSSh def2-TZVP opt d3 TightSCF SlowConv defgrid2
|  2>
|  3> %pal
|  4> nprocs 20
|  5> end
|  6>
|  7> %scf
|  8> MaxIter 1500
|  9> end
| 10>
| 11> %maxcore 8000
| 12>
| 13> !CPCM
| 14> %cpcm smd true
| 15> SMDsolvent "ACETONITRILE"
| 16> end
| 17>
| 18> * xyz -1 2
| 19> 6        6.857280945     27.901753127      3.100719684
| 20> 6        6.154044945     26.704598127      2.411135684
| 21> 6        7.086539945     25.482838127      2.185613684
| 22> 6        6.299616945     24.171731127      1.900070684
| 23> 6        7.185881945     23.070259127      1.248991684
| 24> 6        6.565390945     21.647303127      1.360366684
| 25> 6        7.185681945     20.616666127      0.394672684
| 26> 6        6.843394945     19.121603127      0.784430684
| 27> 9        8.006806945     28.182557127      2.503585684
| 28> 9        7.082780945     27.647576127      4.378925684
| 29> 9        6.067588945     28.966668127      3.018348684
| 30> 9        5.116418945     26.361022127      3.182510684
| 31> 9        5.702795945     27.135986127      1.230360684
| 32> 9        7.887905945     25.777720127      1.156931684
| 33> 9        7.829891945     25.318192127      3.287321684
| 34> 9        5.806494945     23.745652127      3.066652684
| 35> 9        5.287431945     24.474179127      1.076603684
| 36> 9        7.350609945     23.413929127     -0.034316316
| 37> 9        6.756126945     21.255165127      2.631170684
| 38> 9        5.250981945     21.784657127      1.133608684
| 39> 9        6.706596945     20.903759127     -0.845345316
| 40> 9        8.519170945     20.869305127      0.364163684
| 41> 8        7.813741945     18.363469127      0.789215684
| 42> 8        5.634555945     18.967368127      0.997888684
| 43> 8        2.818390092     18.736599843      1.412612662
| 44> 1        2.716934106     17.791620290      1.243555674
| 45> 1        3.748070901     18.906228277      1.215686974
| 46> *
| 47>
| 48>                          ****END OF INPUT****
 Total Charge           Charge          ....   -1
 Multiplicity           Mult            ....    2
 Number of Electrons    NEL             ....  201
Dispersion correction           -0.030792181
FINAL SINGLE POINT ENERGY     -1930.410522487291
Dispersion correction             ... done (  0.0 sec)
Dispersion correction           -0.030426813
FINAL SINGLE POINT ENERGY     -1930.419935000676
Dispersion correction             ... done (  0.0 sec)
Dispersion correction           -0.030439691
FINAL SINGLE POINT ENERGY     -1930.423511820588
Dispersion correction             ... done (  0.0 sec)
FINAL SINGLE POINT ENERGY     -1930.425087830072
FINAL SINGLE POINT ENERGY     -1930.426006372620
FINAL SINGLE POINT ENERGY     -1930.426668729223
FINAL SINGLE POINT ENERGY     -1930.427566147998
FINAL SINGLE POINT ENERGY     -1930.427798212546
FINAL SINGLE POINT ENERGY     -1930.427996238915
FINAL SINGLE POINT ENERGY     -1930.428154145821
FINAL SINGLE POINT ENERGY     -1930.429939776988
FINAL SINGLE POINT ENERGY     -1930.429946399509
FINAL SINGLE POINT ENERGY     -1930.429837249825
FINAL SINGLE POINT ENERGY     -1930.429982270090
FINAL SINGLE POINT ENERGY     -1930.429986292991
FINAL SINGLE POINT ENERGY     -1930.429983714595
FINAL SINGLE POINT ENERGY     -1930.429990079443
Dispersion correction             ... done (  0.0 sec)
Dispersion correction           -0.031729928
FINAL SINGLE POINT ENERGY     -1930.429991130812
Dispersion correction             ... done (  0.0 sec)
Dispersion correction           -0.031730650
FINAL SINGLE POINT ENERGY     -1930.429991952045
Dispersion correction             ... done (  0.0 sec)
                    ***********************HURRAY********************

CARTESIAN COORDINATES (ANGSTROEM)
---------------------------------
  C      7.945172   27.278987    3.003814
  C      6.647486   26.736739    2.323956
  C      6.706563   25.226105    1.926464
  C      5.319457   24.558856    1.634070
  C      5.415929   23.221888    0.959437
  C      5.541775   21.861991    1.576197
  C      6.719188   21.004001    1.026500
  C      7.049055   19.752395    1.927438
  F      9.025410   26.967741    2.279603
  F      8.087954   26.778749    4.232961
  F      7.860662   28.610494    3.095382
  F      5.623938   26.946754    3.180252
  F      6.434622   27.468769    1.210506
  F      7.463176   25.119363    0.809361
  F      7.305794   24.528914    2.917424
  F      4.647264   24.443573    2.804094
  F      4.628482   25.404185    0.819317
  F      5.491616   23.266671   -0.365597
  F      5.718019   22.000274    2.920231
  F      4.375904   21.168527    1.389396
  F      6.405792   20.618906   -0.248843
  F      7.795155   21.844628    0.920217
  O      8.072134   19.846101    2.614908
  O      6.211668   18.826428    1.830982
  O      4.216648   18.063593    0.089421
  H      4.666040   17.344465   -0.373583
  H      4.906227   18.429308    0.691574

 Multiplicity           Mult            ....    2
 Number of Electrons    NEL             ....  201
 Basis Dimension        Dim             ....  787

ORBITAL ENERGIES
----------------
                 SPIN UP ORBITALS
  NO   OCC          E(Eh)            E(eV)
   0   1.0000     -24.663326      -671.1232
   1   1.0000     -24.659550      -671.0205
   2   1.0000     -24.658683      -670.9969
   3   1.0000     -24.657897      -670.9755
   4   1.0000     -24.657311      -670.9595
   5   1.0000     -24.656717      -670.9434
   6   1.0000     -24.656220      -670.9299
   7   1.0000     -24.655578      -670.9124
   8   1.0000     -24.648865      -670.7297
   9   1.0000     -24.648838      -670.7290
  10   1.0000     -24.637026      -670.4075
  11   1.0000     -24.629146      -670.1931
  12   1.0000     -24.616672      -669.8537
  13   1.0000     -24.616348      -669.8449
  14   1.0000     -19.012080      -517.3450
  15   1.0000     -19.000155      -517.0205
  16   1.0000     -18.996750      -516.9278
  17   1.0000     -10.393900      -282.8324
  18   1.0000     -10.341051      -281.3943
  19   1.0000     -10.338009      -281.3115
  20   1.0000     -10.337877      -281.3079
  21   1.0000     -10.316740      -280.7328
  22   1.0000     -10.282238      -279.7939
  23   1.0000     -10.255736      -279.0728
  24   1.0000     -10.199389      -277.5395
  25   1.0000      -1.320466       -35.9317
  26   1.0000      -1.291684       -35.1485
  27   1.0000      -1.276012       -34.7221
  28   1.0000      -1.270453       -34.5708
  29   1.0000      -1.260206       -34.2919
  30   1.0000      -1.252261       -34.0758
  31   1.0000      -1.235014       -33.6064
  32   1.0000      -1.233439       -33.5636
  33   1.0000      -1.229763       -33.4635
  34   1.0000      -1.226199       -33.3666
  35   1.0000      -1.219049       -33.1720
  36   1.0000      -1.213056       -33.0089
  37   1.0000      -1.198023       -32.5999
  38   1.0000      -1.177798       -32.0495
  39   1.0000      -1.007714       -27.4213
  40   1.0000      -0.946863       -25.7655
  41   1.0000      -0.924645       -25.1609
  42   1.0000      -0.826708       -22.4959
  43   1.0000      -0.805394       -21.9159
  44   1.0000      -0.767985       -20.8979
  45   1.0000      -0.731346       -19.9009
  46   1.0000      -0.687774       -18.7153
  47   1.0000      -0.662747       -18.0343
  48   1.0000      -0.634136       -17.2557
  49   1.0000      -0.617696       -16.8084
  50   1.0000      -0.614553       -16.7228
  51   1.0000      -0.607543       -16.5321
  52   1.0000      -0.594488       -16.1768
  53   1.0000      -0.589445       -16.0396
  54   1.0000      -0.587855       -15.9964
  55   1.0000      -0.578865       -15.7517
  56   1.0000      -0.574301       -15.6275
  57   1.0000      -0.564021       -15.3478
  58   1.0000      -0.561407       -15.2766
  59   1.0000      -0.551523       -15.0077
  60   1.0000      -0.550630       -14.9834
  61   1.0000      -0.534845       -14.5539
  62   1.0000      -0.523603       -14.2479
  63   1.0000      -0.496583       -13.5127
  64   1.0000      -0.482070       -13.1178
  65   1.0000      -0.479648       -13.0519
  66   1.0000      -0.477139       -12.9836
  67   1.0000      -0.472320       -12.8525
  68   1.0000      -0.468013       -12.7353
  69   1.0000      -0.464414       -12.6373
  70   1.0000      -0.458083       -12.4651
  71   1.0000      -0.454129       -12.3575
  72   1.0000      -0.449768       -12.2388
  73   1.0000      -0.442510       -12.0413
  74   1.0000      -0.440908       -11.9977
  75   1.0000      -0.438602       -11.9350
  76   1.0000      -0.434393       -11.8204
  77   1.0000      -0.432520       -11.7695
  78   1.0000      -0.431171       -11.7327
  79   1.0000      -0.422653       -11.5010
  80   1.0000      -0.421849       -11.4791
  81   1.0000      -0.418046       -11.3756
  82   1.0000      -0.414520       -11.2797
  83   1.0000      -0.414309       -11.2739
  84   1.0000      -0.411088       -11.1863
  85   1.0000      -0.410147       -11.1607
  86   1.0000      -0.403159       -10.9705
  87   1.0000      -0.400542       -10.8993
  88   1.0000      -0.391262       -10.6468
  89   1.0000      -0.388522       -10.5722
  90   1.0000      -0.382820       -10.4171
  91   1.0000      -0.380914       -10.3652
  92   1.0000      -0.372118       -10.1258
  93   1.0000      -0.348177        -9.4744
  94   1.0000      -0.332229        -9.0404
  95   1.0000      -0.330076        -8.9818
  96   1.0000      -0.258280        -7.0281
  97   1.0000      -0.250630        -6.8200
  98   1.0000      -0.242102        -6.5879
  99   1.0000      -0.229089        -6.2338
 100   1.0000      -0.223286        -6.0759
 101   0.0000      -0.013760        -0.3744
 102   0.0000       0.008709         0.2370
 103   0.0000       0.011611         0.3159
 104   0.0000       0.038109         1.0370
 105   0.0000       0.059124         1.6088

                 SPIN DOWN ORBITALS
  NO   OCC          E(Eh)            E(eV)
   0   1.0000     -24.659554      -671.0206
   1   1.0000     -24.659041      -671.0066
   2   1.0000     -24.658682      -670.9968
   3   1.0000     -24.657855      -670.9744
   4   1.0000     -24.657319      -670.9598
   5   1.0000     -24.656703      -670.9430
   6   1.0000     -24.656213      -670.9297
   7   1.0000     -24.655567      -670.9121
   8   1.0000     -24.648439      -670.7181
   9   1.0000     -24.648338      -670.7154
  10   1.0000     -24.636922      -670.4047
  11   1.0000     -24.627835      -670.1575
  12   1.0000     -24.616540      -669.8501
  13   1.0000     -24.616306      -669.8437
  14   1.0000     -19.012079      -517.3450
  15   1.0000     -19.000124      -517.0196
  16   1.0000     -18.996570      -516.9229
  17   1.0000     -10.393836      -282.8306
  18   1.0000     -10.340897      -281.3901
  19   1.0000     -10.338940      -281.3369
  20   1.0000     -10.337159      -281.2884
  21   1.0000     -10.317611      -280.7565
  22   1.0000     -10.281802      -279.7821
  23   1.0000     -10.240124      -278.6479
  24   1.0000     -10.199362      -277.5387
  25   1.0000      -1.320420       -35.9305
  26   1.0000      -1.291219       -35.1359
  27   1.0000      -1.275509       -34.7084
  28   1.0000      -1.268948       -34.5298
  29   1.0000      -1.257934       -34.2301
  30   1.0000      -1.246514       -33.9194
  31   1.0000      -1.234955       -33.6048
  32   1.0000      -1.233048       -33.5529
  33   1.0000      -1.229712       -33.4622
  34   1.0000      -1.226010       -33.3614
  35   1.0000      -1.218948       -33.1693
  36   1.0000      -1.212055       -32.9817
  37   1.0000      -1.196283       -32.5525
  38   1.0000      -1.177525       -32.0421
  39   1.0000      -1.007533       -27.4164
  40   1.0000      -0.946851       -25.7651
  41   1.0000      -0.924440       -25.1553
  42   1.0000      -0.819041       -22.2872
  43   1.0000      -0.796818       -21.6825
  44   1.0000      -0.766633       -20.8611
  45   1.0000      -0.725588       -19.7442
  46   1.0000      -0.684395       -18.6233
  47   1.0000      -0.661950       -18.0126
  48   1.0000      -0.630208       -17.1488
  49   1.0000      -0.616363       -16.7721
  50   1.0000      -0.612920       -16.6784
  51   1.0000      -0.607371       -16.5274
  52   1.0000      -0.593016       -16.1368
  53   1.0000      -0.587977       -15.9997
  54   1.0000      -0.584544       -15.9063
  55   1.0000      -0.577635       -15.7183
  56   1.0000      -0.572797       -15.5866
  57   1.0000      -0.560925       -15.2635
  58   1.0000      -0.560072       -15.2403
  59   1.0000      -0.550166       -14.9708
  60   1.0000      -0.550034       -14.9672
  61   1.0000      -0.533172       -14.5083
  62   1.0000      -0.522149       -14.2084
  63   1.0000      -0.481953       -13.1146
  64   1.0000      -0.480267       -13.0687
  65   1.0000      -0.477551       -12.9948
  66   1.0000      -0.472931       -12.8691
  67   1.0000      -0.469154       -12.7663
  68   1.0000      -0.466839       -12.7033
  69   1.0000      -0.464030       -12.6269
  70   1.0000      -0.456016       -12.4088
  71   1.0000      -0.453160       -12.3311
  72   1.0000      -0.448609       -12.2073
  73   1.0000      -0.441232       -12.0065
  74   1.0000      -0.440314       -11.9816
  75   1.0000      -0.437992       -11.9184
  76   1.0000      -0.432439       -11.7673
  77   1.0000      -0.431046       -11.7294
  78   1.0000      -0.430284       -11.7086
  79   1.0000      -0.421741       -11.4762
  80   1.0000      -0.421149       -11.4600
  81   1.0000      -0.417785       -11.3685
  82   1.0000      -0.413637       -11.2556
  83   1.0000      -0.412802       -11.2329
  84   1.0000      -0.410778       -11.1778
  85   1.0000      -0.409576       -11.1451
  86   1.0000      -0.402485       -10.9522
  87   1.0000      -0.399576       -10.8730
  88   1.0000      -0.389872       -10.6090
  89   1.0000      -0.388204       -10.5636
  90   1.0000      -0.382507       -10.4085
  91   1.0000      -0.379485       -10.3263
  92   1.0000      -0.371870       -10.1191
  93   1.0000      -0.345369        -9.3980
  94   1.0000      -0.331944        -9.0327
  95   1.0000      -0.328449        -8.9376
  96   1.0000      -0.258260        -7.0276
  97   1.0000      -0.241953        -6.5839
  98   1.0000      -0.229422        -6.2429
  99   1.0000      -0.224474        -6.1082
 100   0.0000      -0.125709        -3.4207
 101   0.0000      -0.009744        -0.2651
 102   0.0000       0.012023         0.3272
 103   0.0000       0.015375         0.4184
 104   0.0000       0.042587         1.1589

MULLIKEN ATOMIC CHARGES AND SPIN POPULATIONS
--------------------------------------------
   0 C :    0.410262    0.002824
   1 C :    0.299054    0.005885
   2 C :    0.259200    0.034070
   3 C :    0.348869   -0.025723
   4 C :    0.110679    0.856592
   5 C :    0.302484   -0.013973
   6 C :    0.304207    0.008782
   7 C :    0.213790    0.000122
   8 F :   -0.136712   -0.000071
   9 F :   -0.133949    0.000032
  10 F :   -0.134228    0.000799
  11 F :   -0.148603   -0.000195
  12 F :   -0.146642    0.000146
  13 F :   -0.159816   -0.000708
  14 F :   -0.159246   -0.000529
  15 F :   -0.153290    0.006380
  16 F :   -0.160086    0.008576
  17 F :   -0.136020    0.081071
  18 F :   -0.178449    0.000775
  19 F :   -0.173502    0.024872
  20 F :   -0.197662    0.002822
  21 F :   -0.197080    0.000098
  22 O :   -0.458471    0.006158
  23 O :   -0.522519    0.001119
  24 O :   -0.740379    0.000011
  25 H :    0.330915    0.000007
  26 H :    0.357194    0.000062
Sum of atomic charges         :   -1.0000000

LOEWDIN ATOMIC CHARGES AND SPIN POPULATIONS
-------------------------------------------
   0 C :   -0.667524    0.001945
   1 C :   -0.465558    0.006641
   2 C :   -0.456935    0.026355
   3 C :   -0.481390    0.067045
   4 C :   -0.163351    0.658928
   5 C :   -0.476176    0.056730
   6 C :   -0.435104    0.013358
   7 C :   -0.666496    0.002027
   8 F :    0.225681   -0.000068
   9 F :    0.227621    0.000053
  10 F :    0.225063    0.000914
  11 F :    0.222973   -0.000135
  12 F :    0.223160    0.000246
  13 F :    0.221307    0.000617
  14 F :    0.223970    0.000630
  15 F :    0.216469    0.008432
  16 F :    0.207130    0.009682
  17 F :    0.254646    0.104880
  18 F :    0.202249    0.002761
  19 F :    0.186082    0.027497
  20 F :    0.163615    0.003276
  21 F :    0.166405    0.001451
  22 O :   -0.025115    0.005669
  23 O :   -0.050472    0.001020
  24 O :   -0.372999    0.000036
  25 H :    0.154956    0.000004
  26 H :    0.139794    0.000006

  Mayer bond orders larger than 0.100000
B(  0-C ,  1-C ) :   0.9677 B(  0-C ,  8-F ) :   1.1594 B(  0-C ,  9-F ) :   1.1697
B(  0-C , 10-F ) :   1.1605 B(  1-C ,  2-C ) :   0.9302 B(  1-C , 11-F ) :   1.1027
B(  1-C , 12-F ) :   1.1100 B(  2-C ,  3-C ) :   0.9323 B(  2-C , 13-F ) :   1.0756
B(  2-C , 14-F ) :   1.0853 B(  3-C ,  4-C ) :   1.0389 B(  3-C , 15-F ) :   1.1091
B(  3-C , 16-F ) :   1.0771 B(  4-C ,  5-C ) :   1.0370 B(  4-C , 17-F ) :   1.1309
B(  5-C ,  6-C ) :   0.9164 B(  5-C , 18-F ) :   1.0594 B(  5-C , 19-F ) :   1.0728
B(  6-C ,  7-C ) :   0.8708 B(  6-C , 20-F ) :   1.0372 B(  6-C , 21-F ) :   1.0498
B(  7-C , 22-O ) :   1.9091 B(  7-C , 23-O ) :   1.6775 B( 23-O , 26-H ) :   0.1120
B( 24-O , 25-H ) :   0.8990 B( 24-O , 26-H ) :   0.8131

Dispersion correction           -0.031731964
FINAL SINGLE POINT ENERGY     -1930.429993429127

DIPOLE MOMENT
-------------

Method             : SCF
Type of density    : Electron Density
Multiplicity       :   2
Irrep              :   0
Energy             : -1930.3982614653336896 Eh
Relativity type    :
Basis              : AO
                                X                 Y                 Z
Electronic contribution:      4.026513129      30.440325345       3.717957066
Nuclear contribution   :     -3.906410684     -23.158839512      -3.877490782
                        -----------------------------------------
Total Dipole Moment    :      0.120102444       7.281485833      -0.159533716
                        -----------------------------------------
Magnitude (a.u.)       :      7.284223469
Magnitude (Debye)      :     18.515024644

Rotational constants in cm-1:             0.016045             0.003921             0.003657
Rotational constants in MHz :           481.015679           117.552921           109.627870

                             ****ORCA TERMINATED NORMALLY****
TOTAL RUN TIME: 0 days 0 hours 42 minutes 16 seconds 815 msec
