                         Program Version 6.0.1  -  RELEASE   -
|  1> !r2scanh def2-TZVP opt d3 TightSCF SlowConv defgrid2
|  2>
|  3> %pal
|  4> nprocs 20
|  5> end
|  6>
|  7> %scf
|  8> MaxIter 1500
|  9> end
| 10>
| 11> %maxcore 8000 #verificar
| 12>
| 13> !CPCM
| 14> %cpcm smd true
| 15> SMDsolvent "ACETONITRILE"
| 16> end
| 17>
| 18> * xyz -1 2
| 19> 6        4.790427000     -0.033865800     -0.529943200
| 20> 8        5.449345000     -1.206924000     -0.894594600
| 21> 8        4.978223000      1.323071000     -0.737377200
| 22> 6        3.506687600     -0.338741600      0.376153800
| 23> 6        2.222300000      0.400524800     -0.110681600
| 24> 6        0.900506800     -0.386389800      0.175703000
| 25> 6       -0.395261200      0.487294000      0.065549000
| 26> 6       -1.705693600     -0.364773800     -0.068373600
| 27> 6       -3.005136200      0.445344800      0.258164000
| 28> 6       -4.319880200     -0.214526000     -0.270540800
| 29> 9        3.211587400     -1.692050400      0.412735200
| 30> 9        3.741061800      0.055285800      1.689948800
| 31> 9        2.125696800      1.616867800      0.483236600
| 32> 9        2.314152400      0.589704000     -1.455769200
| 33> 9        0.794028800     -1.413561400     -0.700839000
| 34> 9        0.958350600     -0.884509000      1.435093400
| 35> 9       -0.498373400      1.260265600      1.173340200
| 36> 9       -0.299075000      1.289512600     -1.020910800
| 37> 9       -1.641790400     -1.418189000      0.779523800
| 38> 9       -2.918792200      1.679227200     -0.295171200
| 39> 9       -3.119771000      0.573779800      1.598579800
| 40> 9       -4.383115600     -1.504377600      0.089127600
| 41> 9       -5.365669800      0.430528600      0.260394200
| 42> 9       -4.396020400     -0.128550600     -1.602941800
| 43> *
| 44>
| 45>                          ****END OF INPUT****
 Total Charge           Charge          ....   -1
 Multiplicity           Mult            ....    2
 Number of Electrons    NEL             ....  191
Dispersion correction           -0.007892001
FINAL SINGLE POINT ENERGY     -1853.049038931589
Dispersion correction             ... done (  0.1 sec)
Dispersion correction           -0.007950746
FINAL SINGLE POINT ENERGY     -1853.098039265232
Dispersion correction             ... done (  0.0 sec)
Dispersion correction           -0.007985092
FINAL SINGLE POINT ENERGY     -1853.108184009972
Dispersion correction             ... done (  0.0 sec)
FINAL SINGLE POINT ENERGY     -1853.113180348433
FINAL SINGLE POINT ENERGY     -1853.111128621345
FINAL SINGLE POINT ENERGY     -1853.115178335080
FINAL SINGLE POINT ENERGY     -1853.115720642289
FINAL SINGLE POINT ENERGY     -1853.115973593583
FINAL SINGLE POINT ENERGY     -1853.116162674722
FINAL SINGLE POINT ENERGY     -1853.116438856490
FINAL SINGLE POINT ENERGY     -1853.116746186000
FINAL SINGLE POINT ENERGY     -1853.116817177509
FINAL SINGLE POINT ENERGY     -1853.116854157591
FINAL SINGLE POINT ENERGY     -1853.116780977648
FINAL SINGLE POINT ENERGY     -1853.116893768919
FINAL SINGLE POINT ENERGY     -1853.116911561650
FINAL SINGLE POINT ENERGY     -1853.116923380810
Dispersion correction             ... done (  0.0 sec)
Dispersion correction           -0.008118713
FINAL SINGLE POINT ENERGY     -1853.116927511984
Dispersion correction             ... done (  0.0 sec)
Dispersion correction           -0.008118178
FINAL SINGLE POINT ENERGY     -1853.116928360734
Dispersion correction             ... done (  0.0 sec)
                    ***********************HURRAY********************

CARTESIAN COORDINATES (ANGSTROEM)
---------------------------------
  C      4.504089   -0.112913   -0.891161
  O      4.847997   -1.054391   -1.612410
  O      4.882916    1.065019   -0.828992
  C      3.368574   -0.442247    0.147923
  C      2.050457    0.299773   -0.173542
  C      0.788253   -0.297101    0.514160
  C     -0.434062    0.666841    0.547779
  C     -1.707202   -0.046377    0.859083
  C     -3.081248    0.422278    0.496161
  C     -3.678415   -0.258634   -0.760884
  F      3.081922   -1.770538    0.193797
  F      3.752813   -0.085493    1.404166
  F      2.157132    1.591021    0.187661
  F      1.849720    0.248028   -1.508251
  F      0.417709   -1.407194   -0.150173
  F      1.086849   -0.630759    1.782247
  F     -0.188023    1.634098    1.468392
  F     -0.549782    1.272646   -0.652850
  F     -1.647344   -1.061142    1.696067
  F     -3.070268    1.750134    0.263753
  F     -3.923758    0.162679    1.516456
  F     -3.705123   -1.577195   -0.590443
  F     -4.917112    0.172226   -0.968668
  F     -2.942307    0.024187   -1.829864

 Multiplicity           Mult            ....    2
 Number of Electrons    NEL             ....  191
 Basis Dimension        Dim             ....  744

ORBITAL ENERGIES
----------------
                 SPIN UP ORBITALS
  NO   OCC          E(Eh)            E(eV)
   0   1.0000     -24.742960      -673.2902
   1   1.0000     -24.728671      -672.9013
   2   1.0000     -24.728492      -672.8965
   3   1.0000     -24.727875      -672.8797
   4   1.0000     -24.724652      -672.7920
   5   1.0000     -24.723126      -672.7505
   6   1.0000     -24.722354      -672.7295
   7   1.0000     -24.720534      -672.6799
   8   1.0000     -24.720529      -672.6798
   9   1.0000     -24.715265      -672.5365
  10   1.0000     -24.709778      -672.3872
  11   1.0000     -24.709768      -672.3870
  12   1.0000     -24.685814      -671.7351
  13   1.0000     -24.685550      -671.7280
  14   1.0000     -19.048998      -518.3496
  15   1.0000     -19.047102      -518.2980
  16   1.0000     -10.433513      -283.9103
  17   1.0000     -10.381826      -282.5039
  18   1.0000     -10.378831      -282.4224
  19   1.0000     -10.372002      -282.2365
  20   1.0000     -10.358774      -281.8766
  21   1.0000     -10.321652      -280.8664
  22   1.0000     -10.307784      -280.4891
  23   1.0000     -10.233231      -278.4604
  24   1.0000      -1.356566       -36.9140
  25   1.0000      -1.324629       -36.0450
  26   1.0000      -1.313756       -35.7491
  27   1.0000      -1.302703       -35.4484
  28   1.0000      -1.299364       -35.3575
  29   1.0000      -1.295467       -35.2515
  30   1.0000      -1.269100       -34.5340
  31   1.0000      -1.266156       -34.4539
  32   1.0000      -1.263439       -34.3799
  33   1.0000      -1.255836       -34.1730
  34   1.0000      -1.251592       -34.0576
  35   1.0000      -1.244013       -33.8513
  36   1.0000      -1.238197       -33.6931
  37   1.0000      -1.210617       -32.9426
  38   1.0000      -1.028624       -27.9903
  39   1.0000      -0.944248       -25.6943
  40   1.0000      -0.854716       -23.2580
  41   1.0000      -0.819722       -22.3058
  42   1.0000      -0.788618       -21.4594
  43   1.0000      -0.748541       -20.3688
  44   1.0000      -0.708677       -19.2841
  45   1.0000      -0.671580       -18.2746
  46   1.0000      -0.658368       -17.9151
  47   1.0000      -0.632155       -17.2018
  48   1.0000      -0.625155       -17.0113
  49   1.0000      -0.624625       -16.9969
  50   1.0000      -0.616020       -16.7628
  51   1.0000      -0.610203       -16.6045
  52   1.0000      -0.607095       -16.5199
  53   1.0000      -0.592370       -16.1192
  54   1.0000      -0.588806       -16.0222
  55   1.0000      -0.582774       -15.8581
  56   1.0000      -0.570924       -15.5356
  57   1.0000      -0.568425       -15.4676
  58   1.0000      -0.561575       -15.2812
  59   1.0000      -0.553749       -15.0683
  60   1.0000      -0.539309       -14.6753
  61   1.0000      -0.523031       -14.2324
  62   1.0000      -0.492527       -13.4023
  63   1.0000      -0.490096       -13.3362
  64   1.0000      -0.485368       -13.2075
  65   1.0000      -0.483452       -13.1554
  66   1.0000      -0.482675       -13.1343
  67   1.0000      -0.472076       -12.8458
  68   1.0000      -0.466289       -12.6884
  69   1.0000      -0.463557       -12.6140
  70   1.0000      -0.461643       -12.5619
  71   1.0000      -0.457391       -12.4463
  72   1.0000      -0.451282       -12.2800
  73   1.0000      -0.448811       -12.2128
  74   1.0000      -0.446516       -12.1503
  75   1.0000      -0.445090       -12.1115
  76   1.0000      -0.440190       -11.9782
  77   1.0000      -0.438107       -11.9215
  78   1.0000      -0.431301       -11.7363
  79   1.0000      -0.425692       -11.5837
  80   1.0000      -0.424387       -11.5481
  81   1.0000      -0.422971       -11.5096
  82   1.0000      -0.420388       -11.4393
  83   1.0000      -0.417285       -11.3549
  84   1.0000      -0.411681       -11.2024
  85   1.0000      -0.400396       -10.8953
  86   1.0000      -0.397280       -10.8105
  87   1.0000      -0.387897       -10.5552
  88   1.0000      -0.383432       -10.4337
  89   1.0000      -0.375140       -10.2081
  90   1.0000      -0.365437        -9.9441
  91   1.0000      -0.328895        -8.9497
  92   1.0000      -0.265921        -7.2361
  93   1.0000      -0.241319        -6.5666
  94   1.0000      -0.225003        -6.1226
  95   1.0000      -0.222936        -6.0664
  96   0.0000      -0.012392        -0.3372
  97   0.0000       0.017381         0.4730
  98   0.0000       0.034548         0.9401
  99   0.0000       0.049842         1.3563
 100   0.0000       0.071272         1.9394

                 SPIN DOWN ORBITALS
  NO   OCC          E(Eh)            E(eV)
   0   1.0000     -24.737764      -673.1488
   1   1.0000     -24.728629      -672.9002
   2   1.0000     -24.728432      -672.8949
   3   1.0000     -24.727522      -672.8701
   4   1.0000     -24.724058      -672.7758
   5   1.0000     -24.722402      -672.7308
   6   1.0000     -24.721925      -672.7178
   7   1.0000     -24.720439      -672.6773
   8   1.0000     -24.720429      -672.6771
   9   1.0000     -24.713286      -672.4827
  10   1.0000     -24.709775      -672.3872
  11   1.0000     -24.709766      -672.3869
  12   1.0000     -24.685810      -671.7350
  13   1.0000     -24.685550      -671.7280
  14   1.0000     -19.048991      -518.3494
  15   1.0000     -19.047101      -518.2980
  16   1.0000     -10.432774      -283.8902
  17   1.0000     -10.382917      -282.5335
  18   1.0000     -10.379759      -282.4476
  19   1.0000     -10.371825      -282.2317
  20   1.0000     -10.358776      -281.8766
  21   1.0000     -10.321646      -280.8663
  22   1.0000     -10.290660      -280.0231
  23   1.0000     -10.233230      -278.4603
  24   1.0000      -1.356108       -36.9016
  25   1.0000      -1.323287       -36.0085
  26   1.0000      -1.311650       -35.6918
  27   1.0000      -1.301380       -35.4123
  28   1.0000      -1.297142       -35.2970
  29   1.0000      -1.289843       -35.0984
  30   1.0000      -1.269085       -34.5336
  31   1.0000      -1.265816       -34.4446
  32   1.0000      -1.262961       -34.3669
  33   1.0000      -1.255163       -34.1547
  34   1.0000      -1.250239       -34.0207
  35   1.0000      -1.241804       -33.7912
  36   1.0000      -1.238167       -33.6922
  37   1.0000      -1.210614       -32.9425
  38   1.0000      -1.028618       -27.9901
  39   1.0000      -0.944240       -25.6941
  40   1.0000      -0.838290       -22.8110
  41   1.0000      -0.817520       -22.2459
  42   1.0000      -0.785367       -21.3709
  43   1.0000      -0.740597       -20.1527
  44   1.0000      -0.707007       -19.2386
  45   1.0000      -0.667228       -18.1562
  46   1.0000      -0.656347       -17.8601
  47   1.0000      -0.627848       -17.0846
  48   1.0000      -0.624011       -16.9802
  49   1.0000      -0.622533       -16.9400
  50   1.0000      -0.615147       -16.7390
  51   1.0000      -0.608889       -16.5687
  52   1.0000      -0.605626       -16.4799
  53   1.0000      -0.590924       -16.0798
  54   1.0000      -0.586794       -15.9675
  55   1.0000      -0.580482       -15.7957
  56   1.0000      -0.569357       -15.4930
  57   1.0000      -0.566423       -15.4131
  58   1.0000      -0.560513       -15.2523
  59   1.0000      -0.552803       -15.0425
  60   1.0000      -0.539285       -14.6747
  61   1.0000      -0.494279       -13.4500
  62   1.0000      -0.489305       -13.3147
  63   1.0000      -0.488574       -13.2948
  64   1.0000      -0.485127       -13.2010
  65   1.0000      -0.482517       -13.1300
  66   1.0000      -0.480943       -13.0871
  67   1.0000      -0.471240       -12.8231
  68   1.0000      -0.465326       -12.6622
  69   1.0000      -0.462140       -12.5755
  70   1.0000      -0.459933       -12.5154
  71   1.0000      -0.455438       -12.3931
  72   1.0000      -0.448276       -12.1982
  73   1.0000      -0.447627       -12.1806
  74   1.0000      -0.445496       -12.1226
  75   1.0000      -0.443462       -12.0672
  76   1.0000      -0.439223       -11.9519
  77   1.0000      -0.437028       -11.8921
  78   1.0000      -0.430523       -11.7151
  79   1.0000      -0.424498       -11.5512
  80   1.0000      -0.423904       -11.5350
  81   1.0000      -0.421560       -11.4712
  82   1.0000      -0.419292       -11.4095
  83   1.0000      -0.416964       -11.3462
  84   1.0000      -0.410569       -11.1722
  85   1.0000      -0.399731       -10.8772
  86   1.0000      -0.397266       -10.8101
  87   1.0000      -0.387834       -10.5535
  88   1.0000      -0.381000       -10.3675
  89   1.0000      -0.375125       -10.2077
  90   1.0000      -0.362128        -9.8540
  91   1.0000      -0.327427        -8.9097
  92   1.0000      -0.241316        -6.5665
  93   1.0000      -0.225007        -6.1228
  94   1.0000      -0.222941        -6.0665
  95   0.0000      -0.121299        -3.3007
  96   0.0000      -0.010246        -0.2788
  97   0.0000       0.018891         0.5140
  98   0.0000       0.038703         1.0532
  99   0.0000       0.054348         1.4789

MULLIKEN ATOMIC CHARGES AND SPIN POPULATIONS
--------------------------------------------
   0 C :    0.212017   -0.000030
   1 O :   -0.509954    0.000210
   2 O :   -0.523204    0.000029
   3 C :    0.346707    0.000230
   4 C :    0.297580    0.000681
   5 C :    0.330533   -0.003311
   6 C :    0.367705   -0.001583
   7 C :    0.100505    0.852300
   8 C :    0.354853   -0.038407
   9 C :    0.477153    0.026412
  10 F :   -0.208203   -0.000000
  11 F :   -0.213946    0.000059
  12 F :   -0.178909   -0.000015
  13 F :   -0.186877    0.000046
  14 F :   -0.175149    0.000962
  15 F :   -0.173168    0.001621
  16 F :   -0.176680    0.033481
  17 F :   -0.177013    0.005842
  18 F :   -0.145619    0.091503
  19 F :   -0.169280    0.009480
  20 F :   -0.167332    0.012733
  21 F :   -0.162848    0.000641
  22 F :   -0.157347    0.006142
  23 F :   -0.161525    0.000975
Sum of atomic charges         :   -1.0000000

LOEWDIN ATOMIC CHARGES AND SPIN POPULATIONS
-------------------------------------------
   0 C :   -0.696505    0.000055
   1 O :   -0.048775    0.000191
   2 O :   -0.054967    0.000023
   3 C :   -0.450986    0.000230
   4 C :   -0.468982    0.000324
   5 C :   -0.462540    0.004577
   6 C :   -0.484958    0.056904
   7 C :   -0.166750    0.668866
   8 C :   -0.495588    0.058787
   9 C :   -0.675172    0.020545
  10 F :    0.170178    0.000017
  11 F :    0.163268    0.000074
  12 F :    0.216651    0.000076
  13 F :    0.208706    0.000069
  14 F :    0.221369    0.002174
  15 F :    0.221793    0.001967
  16 F :    0.199129    0.035787
  17 F :    0.218591    0.008566
  18 F :    0.265801    0.108555
  19 F :    0.219343    0.010217
  20 F :    0.217330    0.012457
  21 F :    0.226912    0.001183
  22 F :    0.227562    0.006788
  23 F :    0.228588    0.001567

  Mayer bond orders larger than 0.100000
B(  0-C ,  1-O ) :   1.8538 B(  0-C ,  2-O ) :   1.8258 B(  0-C ,  3-C ) :   0.8351
B(  3-C ,  4-C ) :   0.9292 B(  3-C , 10-F ) :   1.0340 B(  3-C , 11-F ) :   1.0253
B(  4-C ,  5-C ) :   0.9194 B(  4-C , 12-F ) :   1.0703 B(  4-C , 13-F ) :   1.0618
B(  5-C ,  6-C ) :   0.9293 B(  5-C , 14-F ) :   1.0698 B(  5-C , 15-F ) :   1.0712
B(  6-C ,  7-C ) :   1.0427 B(  6-C , 16-F ) :   1.0694 B(  6-C , 17-F ) :   1.0502
B(  7-C ,  8-C ) :   1.0275 B(  7-C , 18-F ) :   1.1075 B(  8-C ,  9-C ) :   0.9519
B(  8-C , 19-F ) :   1.0808 B(  8-C , 20-F ) :   1.0844 B(  9-C , 21-F ) :   1.1241
B(  9-C , 22-F ) :   1.1305 B(  9-C , 23-F ) :   1.1311

Dispersion correction           -0.008117735
FINAL SINGLE POINT ENERGY     -1853.116928728198

DIPOLE MOMENT
-------------

Method             : SCF
Type of density    : Electron Density
Multiplicity       :   2
Irrep              :   0
Energy             : -1853.1088109936524688 Eh
Relativity type    :
Basis              : AO
                                X                 Y                 Z
Electronic contribution:    -16.769360016      -0.055373297       3.790935708
Nuclear contribution   :      8.572721258      -0.000535590      -1.878189195
                        -----------------------------------------
Total Dipole Moment    :     -8.196638758      -0.055908887       1.912746513
                        -----------------------------------------
Magnitude (a.u.)       :      8.417042946
Magnitude (Debye)      :     21.394422926

Rotational constants in cm-1:             0.019289             0.004255             0.004192
Rotational constants in MHz :           578.277092           127.560195           125.659726

                             ****ORCA TERMINATED NORMALLY****
TOTAL RUN TIME: 0 days 0 hours 32 minutes 2 seconds 180 msec
