                         Program Version 6.0.1  -  RELEASE   -
|  1> !TPSSh def2-TZVP freq d3 TightSCF SlowConv defgrid2
|  2>
|  3> %pal
|  4> nprocs 20
|  5> end
|  6>
|  7> %scf
|  8> MaxIter 1500
|  9> end
| 10>
| 11> %maxcore 8000
| 12>
| 13> !CPCM
| 14> %cpcm smd true
| 15> SMDsolvent "ACETONITRILE"
| 16> end
| 17>
| 18> * xyz 0 2
| 19> 6        4.673008000     -0.291836000      0.064955000
| 20> 8        5.058702000     -1.259021000     -0.756468000
| 21> 8        5.306029000      0.668564000      0.410143000
| 22> 6        3.219799000     -0.527107000      0.558023000
| 23> 6        2.190350000      0.247447000     -0.325552000
| 24> 6        0.703525000     -0.196795000     -0.125596000
| 25> 6       -0.365232000      0.841997000     -0.608927000
| 26> 6       -1.751913000      0.272342000     -0.689486000
| 27> 6       -2.851891000      0.509509000      0.294155000
| 28> 6       -4.021332000     -0.515963000      0.194709000
| 29> 9        2.905288000     -1.844726000      0.541519000
| 30> 9        3.125286000     -0.080686000      1.828921000
| 31> 9        2.310002000      1.564952000     -0.051435000
| 32> 9        2.522047000      0.052116000     -1.623828000
| 33> 9        0.505713000     -1.344433000     -0.812891000
| 34> 9        0.478253000     -0.439126000      1.184332000
| 35> 9       -0.366490000      1.889886000      0.249499000
| 36> 9        0.008814000      1.280421000     -1.840563000
| 37> 9       -2.055595000     -0.364050000     -1.809320000
| 38> 9       -3.401853000      1.753747000      0.145244000
| 39> 9       -2.358098000      0.446748000      1.557736000
| 40> 9       -3.552614000     -1.765679000      0.289932000
| 41> 9       -4.878520000     -0.302677000      1.196924000
| 42> 9       -4.677590000     -0.385446000     -0.961817000
| 43> 1        5.970632000     -1.073214000     -1.061909000
| 44> *
| 45>
| 46>                          ****END OF INPUT****

CARTESIAN COORDINATES (ANGSTROEM)
---------------------------------
  C      4.673008   -0.291836    0.064955
  O      5.058702   -1.259021   -0.756468
  O      5.306029    0.668564    0.410143
  C      3.219799   -0.527107    0.558023
  C      2.190350    0.247447   -0.325552
  C      0.703525   -0.196795   -0.125596
  C     -0.365232    0.841997   -0.608927
  C     -1.751913    0.272342   -0.689486
  C     -2.851891    0.509509    0.294155
  C     -4.021332   -0.515963    0.194709
  F      2.905288   -1.844726    0.541519
  F      3.125286   -0.080686    1.828921
  F      2.310002    1.564952   -0.051435
  F      2.522047    0.052116   -1.623828
  F      0.505713   -1.344433   -0.812891
  F      0.478253   -0.439126    1.184332
  F     -0.366490    1.889886    0.249499
  F      0.008814    1.280421   -1.840563
  F     -2.055595   -0.364050   -1.809320
  F     -3.401853    1.753747    0.145244
  F     -2.358098    0.446748    1.557736
  F     -3.552614   -1.765679    0.289932
  F     -4.878520   -0.302677    1.196924
  F     -4.677590   -0.385446   -0.961817
  H      5.970632   -1.073214   -1.061909

 Total Charge           Charge          ....    0
 Multiplicity           Mult            ....    2
 Number of Electrons    NEL             ....  191
 Basis Dimension        Dim             ....  750

ORBITAL ENERGIES
----------------
                 SPIN UP ORBITALS
  NO   OCC          E(Eh)            E(eV)
   0   1.0000     -24.677006      -671.4955
   1   1.0000     -24.660139      -671.0365
   2   1.0000     -24.659829      -671.0281
   3   1.0000     -24.659271      -671.0129
   4   1.0000     -24.659246      -671.0122
   5   1.0000     -24.658605      -670.9948
   6   1.0000     -24.658494      -670.9917
   7   1.0000     -24.658033      -670.9792
   8   1.0000     -24.656709      -670.9432
   9   1.0000     -24.655104      -670.8995
  10   1.0000     -24.654130      -670.8730
  11   1.0000     -24.650690      -670.7794
  12   1.0000     -24.649277      -670.7409
  13   1.0000     -24.648633      -670.7234
  14   1.0000     -19.133288      -520.6432
  15   1.0000     -19.079827      -519.1885
  16   1.0000     -10.394034      -282.8361
  17   1.0000     -10.344620      -281.4914
  18   1.0000     -10.341961      -281.4191
  19   1.0000     -10.341244      -281.3995
  20   1.0000     -10.340748      -281.3861
  21   1.0000     -10.332227      -281.1542
  22   1.0000     -10.280930      -279.7583
  23   1.0000     -10.270267      -279.4682
  24   1.0000      -1.320303       -35.9273
  25   1.0000      -1.299331       -35.3566
  26   1.0000      -1.284167       -34.9439
  27   1.0000      -1.276154       -34.7259
  28   1.0000      -1.271951       -34.6115
  29   1.0000      -1.270353       -34.5681
  30   1.0000      -1.267594       -34.4930
  31   1.0000      -1.233068       -33.5535
  32   1.0000      -1.232905       -33.5490
  33   1.0000      -1.230777       -33.4911
  34   1.0000      -1.223916       -33.3045
  35   1.0000      -1.219018       -33.1712
  36   1.0000      -1.214773       -33.0557
  37   1.0000      -1.214252       -33.0415
  38   1.0000      -1.119223       -30.4556
  39   1.0000      -1.035372       -28.1739
  40   1.0000      -0.838539       -22.8178
  41   1.0000      -0.814464       -22.1627
  42   1.0000      -0.787564       -21.4307
  43   1.0000      -0.754770       -20.5383
  44   1.0000      -0.710163       -19.3245
  45   1.0000      -0.677193       -18.4274
  46   1.0000      -0.649901       -17.6847
  47   1.0000      -0.641797       -17.4642
  48   1.0000      -0.617233       -16.7958
  49   1.0000      -0.615738       -16.7551
  50   1.0000      -0.612205       -16.6589
  51   1.0000      -0.605219       -16.4688
  52   1.0000      -0.604464       -16.4483
  53   1.0000      -0.597227       -16.2514
  54   1.0000      -0.584681       -15.9100
  55   1.0000      -0.582035       -15.8380
  56   1.0000      -0.576381       -15.6841
  57   1.0000      -0.570627       -15.5276
  58   1.0000      -0.564951       -15.3731
  59   1.0000      -0.561407       -15.2767
  60   1.0000      -0.552523       -15.0349
  61   1.0000      -0.545782       -14.8515
  62   1.0000      -0.509639       -13.8680
  63   1.0000      -0.497778       -13.5452
  64   1.0000      -0.483597       -13.1593
  65   1.0000      -0.478957       -13.0331
  66   1.0000      -0.476499       -12.9662
  67   1.0000      -0.472579       -12.8595
  68   1.0000      -0.470087       -12.7917
  69   1.0000      -0.469069       -12.7640
  70   1.0000      -0.466383       -12.6909
  71   1.0000      -0.459764       -12.5108
  72   1.0000      -0.457309       -12.4440
  73   1.0000      -0.453252       -12.3336
  74   1.0000      -0.448290       -12.1986
  75   1.0000      -0.445938       -12.1346
  76   1.0000      -0.440738       -11.9931
  77   1.0000      -0.440003       -11.9731
  78   1.0000      -0.436145       -11.8681
  79   1.0000      -0.432587       -11.7713
  80   1.0000      -0.431648       -11.7457
  81   1.0000      -0.429890       -11.6979
  82   1.0000      -0.422616       -11.5000
  83   1.0000      -0.420146       -11.4328
  84   1.0000      -0.417667       -11.3653
  85   1.0000      -0.415425       -11.3043
  86   1.0000      -0.413956       -11.2643
  87   1.0000      -0.412098       -11.2138
  88   1.0000      -0.411497       -11.1974
  89   1.0000      -0.405230       -11.0269
  90   1.0000      -0.384805       -10.4711
  91   1.0000      -0.363441        -9.8897
  92   1.0000      -0.340823        -9.2743
  93   1.0000      -0.337787        -9.1916
  94   1.0000      -0.296468        -8.0673
  95   1.0000      -0.262102        -7.1322
  96   0.0000      -0.064029        -1.7423
  97   0.0000      -0.017776        -0.4837
  98   0.0000       0.010266         0.2794
  99   0.0000       0.021869         0.5951
 100   0.0000       0.038498         1.0476

                 SPIN DOWN ORBITALS
  NO   OCC          E(Eh)            E(eV)
   0   1.0000     -24.672492      -671.3726
   1   1.0000     -24.660099      -671.0354
   2   1.0000     -24.659765      -671.0263
   3   1.0000     -24.659261      -671.0126
   4   1.0000     -24.659234      -671.0119
   5   1.0000     -24.658581      -670.9941
   6   1.0000     -24.658500      -670.9919
   7   1.0000     -24.658024      -670.9790
   8   1.0000     -24.656389      -670.9345
   9   1.0000     -24.654411      -670.8806
  10   1.0000     -24.653531      -670.8567
  11   1.0000     -24.650692      -670.7794
  12   1.0000     -24.649273      -670.7408
  13   1.0000     -24.646990      -670.6787
  14   1.0000     -19.133284      -520.6431
  15   1.0000     -19.079814      -519.1881
  16   1.0000     -10.393969      -282.8343
  17   1.0000     -10.345559      -281.5170
  18   1.0000     -10.342716      -281.4396
  19   1.0000     -10.340691      -281.3845
  20   1.0000     -10.340555      -281.3808
  21   1.0000     -10.332179      -281.1529
  22   1.0000     -10.280917      -279.7580
  23   1.0000     -10.254551      -279.0405
  24   1.0000      -1.320086       -35.9214
  25   1.0000      -1.298888       -35.3445
  26   1.0000      -1.282723       -34.9047
  27   1.0000      -1.274621       -34.6842
  28   1.0000      -1.271026       -34.5864
  29   1.0000      -1.269569       -34.5467
  30   1.0000      -1.260992       -34.3133
  31   1.0000      -1.232799       -33.5462
  32   1.0000      -1.232689       -33.5432
  33   1.0000      -1.230680       -33.4885
  34   1.0000      -1.223518       -33.2936
  35   1.0000      -1.218281       -33.1511
  36   1.0000      -1.214764       -33.0554
  37   1.0000      -1.211806       -32.9749
  38   1.0000      -1.119209       -30.4552
  39   1.0000      -1.035353       -28.1734
  40   1.0000      -0.826522       -22.4908
  41   1.0000      -0.810618       -22.0580
  42   1.0000      -0.786631       -21.4053
  43   1.0000      -0.749834       -20.4040
  44   1.0000      -0.706157       -19.2155
  45   1.0000      -0.675777       -18.3888
  46   1.0000      -0.645955       -17.5773
  47   1.0000      -0.641610       -17.4591
  48   1.0000      -0.615238       -16.7415
  49   1.0000      -0.613952       -16.7065
  50   1.0000      -0.609297       -16.5798
  51   1.0000      -0.604525       -16.4500
  52   1.0000      -0.603818       -16.4307
  53   1.0000      -0.596633       -16.2352
  54   1.0000      -0.583477       -15.8772
  55   1.0000      -0.579882       -15.7794
  56   1.0000      -0.574902       -15.6439
  57   1.0000      -0.568497       -15.4696
  58   1.0000      -0.561576       -15.2813
  59   1.0000      -0.560159       -15.2427
  60   1.0000      -0.550966       -14.9925
  61   1.0000      -0.545587       -14.8462
  62   1.0000      -0.497764       -13.5448
  63   1.0000      -0.483105       -13.1460
  64   1.0000      -0.482051       -13.1173
  65   1.0000      -0.478682       -13.0256
  66   1.0000      -0.475050       -12.9268
  67   1.0000      -0.471555       -12.8317
  68   1.0000      -0.469318       -12.7708
  69   1.0000      -0.467656       -12.7256
  70   1.0000      -0.466121       -12.6838
  71   1.0000      -0.458768       -12.4837
  72   1.0000      -0.455951       -12.4071
  73   1.0000      -0.452498       -12.3131
  74   1.0000      -0.447435       -12.1753
  75   1.0000      -0.444659       -12.0998
  76   1.0000      -0.439985       -11.9726
  77   1.0000      -0.438221       -11.9246
  78   1.0000      -0.434688       -11.8285
  79   1.0000      -0.431162       -11.7325
  80   1.0000      -0.431044       -11.7293
  81   1.0000      -0.428917       -11.6714
  82   1.0000      -0.422187       -11.4883
  83   1.0000      -0.418719       -11.3939
  84   1.0000      -0.417186       -11.3522
  85   1.0000      -0.414895       -11.2899
  86   1.0000      -0.413326       -11.2472
  87   1.0000      -0.411348       -11.1933
  88   1.0000      -0.410720       -11.1763
  89   1.0000      -0.404569       -11.0089
  90   1.0000      -0.383146       -10.4259
  91   1.0000      -0.361623        -9.8403
  92   1.0000      -0.340483        -9.2650
  93   1.0000      -0.336277        -9.1506
  94   1.0000      -0.296070        -8.0565
  95   0.0000      -0.138666        -3.7733
  96   0.0000      -0.062891        -1.7114
  97   0.0000      -0.013250        -0.3605
  98   0.0000       0.014906         0.4056
  99   0.0000       0.024773         0.6741

MULLIKEN ATOMIC CHARGES AND SPIN POPULATIONS
--------------------------------------------
   0 C :    0.224398    0.000512
   1 O :   -0.338159    0.000077
   2 O :   -0.288843    0.000482
   3 C :    0.374322    0.002015
   4 C :    0.265904    0.005205
   5 C :    0.275983    0.027554
   6 C :    0.345044   -0.022345
   7 C :    0.122195    0.848857
   8 C :    0.314233   -0.004728
   9 C :    0.410251   -0.004229
  10 F :   -0.159334   -0.000014
  11 F :   -0.155461    0.000102
  12 F :   -0.152625   -0.000166
  13 F :   -0.155794    0.000184
  14 F :   -0.154806   -0.000106
  15 F :   -0.154323   -0.000314
  16 F :   -0.151991    0.005075
  17 F :   -0.154740    0.012929
  18 F :   -0.123736    0.086390
  19 F :   -0.160510    0.031038
  20 F :   -0.153922    0.009738
  21 F :   -0.139612    0.000360
  22 F :   -0.133884    0.000084
  23 F :   -0.136922    0.001232
  24 H :    0.382332    0.000069
Sum of atomic charges         :   -0.0000000

LOEWDIN ATOMIC CHARGES AND SPIN POPULATIONS
-------------------------------------------
   0 C :   -0.491272    0.000503
   1 O :    0.156886    0.000083
   2 O :    0.135435    0.000413
   3 C :   -0.452259    0.001841
   4 C :   -0.454858    0.004977
   5 C :   -0.454471    0.022203
   6 C :   -0.478118    0.060855
   7 C :   -0.159031    0.660904
   8 C :   -0.478660    0.062592
   9 C :   -0.662616    0.001862
  10 F :    0.210209   -0.000041
  11 F :    0.215888    0.000127
  12 F :    0.225413   -0.000111
  13 F :    0.220691    0.000277
  14 F :    0.223569    0.000911
  15 F :    0.225619    0.000582
  16 F :    0.221266    0.006408
  17 F :    0.212949    0.013771
  18 F :    0.268059    0.110481
  19 F :    0.192524    0.034896
  20 F :    0.212247    0.013603
  21 F :    0.224494    0.001060
  22 F :    0.226791    0.000236
  23 F :    0.225566    0.001532
  24 H :    0.233678    0.000034

  Mayer bond orders larger than 0.100000
B(  0-C ,  1-O ) :   1.3133 B(  0-C ,  2-O ) :   2.0716 B(  0-C ,  3-C ) :   0.9070
B(  1-O , 24-H ) :   0.8195 B(  3-C ,  4-C ) :   0.9549 B(  3-C , 10-F ) :   1.1002
B(  3-C , 11-F ) :   1.1180 B(  4-C ,  5-C ) :   0.9419 B(  4-C , 12-F ) :   1.0958
B(  4-C , 13-F ) :   1.0865 B(  5-C ,  6-C ) :   0.9419 B(  5-C , 14-F ) :   1.0907
B(  5-C , 15-F ) :   1.0940 B(  6-C ,  7-C ) :   1.0301 B(  6-C , 16-F ) :   1.1028
B(  6-C , 17-F ) :   1.0852 B(  7-C ,  8-C ) :   1.0397 B(  7-C , 18-F ) :   1.1480
B(  8-C ,  9-C ) :   0.9670 B(  8-C , 19-F ) :   1.0862 B(  8-C , 20-F ) :   1.0847
B(  9-C , 21-F ) :   1.1604 B(  9-C , 22-F ) :   1.1644 B(  9-C , 23-F ) :   1.1624

Dispersion correction           -0.029671596
FINAL SINGLE POINT ENERGY     -1854.409450105487

DIPOLE MOMENT
-------------

Method             : SCF
Type of density    : Electron Density
Multiplicity       :   2
Irrep              :   0
Energy             : -1854.3797785092233426 Eh
Relativity type    :
Basis              : AO
                                X                 Y                 Z
Electronic contribution:    -14.204715697       0.642647937       0.517746729
Nuclear contribution   :     14.927401538      -1.372605766      -1.398051002
                        -----------------------------------------
Total Dipole Moment    :      0.722685841      -0.729957828      -0.880304273
                        -----------------------------------------
Magnitude (a.u.)       :      1.352792989
Magnitude (Debye)      :      3.438526513

VIBRATIONAL FREQUENCIES
-----------------------

Scaling factor for frequencies =  1.000000000  (already applied!)

     0:       0.00 cm**-1
     1:       0.00 cm**-1
     2:       0.00 cm**-1
     3:       0.00 cm**-1
     4:       0.00 cm**-1
     5:       0.00 cm**-1
     6:      18.78 cm**-1
     7:      25.26 cm**-1
     8:      37.99 cm**-1
     9:      43.10 cm**-1
    10:      50.32 cm**-1
    11:      61.10 cm**-1
    12:      68.84 cm**-1
    13:      73.68 cm**-1
    14:      99.84 cm**-1
    15:     118.25 cm**-1
    16:     150.57 cm**-1
    17:     161.00 cm**-1
    18:     180.37 cm**-1
    19:     192.62 cm**-1
    20:     197.37 cm**-1
    21:     212.16 cm**-1
    22:     231.13 cm**-1
    23:     237.34 cm**-1
    24:     252.06 cm**-1
    25:     269.91 cm**-1
    26:     282.77 cm**-1
    27:     303.94 cm**-1
    28:     316.38 cm**-1
    29:     336.13 cm**-1
    30:     349.81 cm**-1
    31:     359.98 cm**-1
    32:     364.12 cm**-1
    33:     367.67 cm**-1
    34:     381.68 cm**-1
    35:     433.31 cm**-1
    36:     462.30 cm**-1
    37:     489.97 cm**-1
    38:     499.63 cm**-1
    39:     516.80 cm**-1
    40:     535.57 cm**-1
    41:     557.57 cm**-1
    42:     575.37 cm**-1
    43:     582.85 cm**-1
    44:     591.66 cm**-1
    45:     623.59 cm**-1
    46:     637.50 cm**-1
    47:     660.00 cm**-1
    48:     691.10 cm**-1
    49:     702.95 cm**-1
    50:     745.76 cm**-1
    51:     769.34 cm**-1
    52:     862.66 cm**-1
    53:     980.46 cm**-1
    54:    1032.16 cm**-1
    55:    1087.15 cm**-1
    56:    1095.97 cm**-1
    57:    1111.02 cm**-1
    58:    1125.47 cm**-1
    59:    1130.02 cm**-1
    60:    1133.81 cm**-1
    61:    1144.33 cm**-1
    62:    1147.81 cm**-1
    63:    1161.75 cm**-1
    64:    1166.45 cm**-1
    65:    1169.35 cm**-1
    66:    1189.92 cm**-1
    67:    1241.68 cm**-1
    68:    1261.45 cm**-1
    69:    1268.30 cm**-1
    70:    1344.78 cm**-1
    71:    1382.97 cm**-1
    72:    1394.54 cm**-1
    73:    1807.52 cm**-1
    74:    3601.55 cm**-1

IR SPECTRUM
-----------

 Mode   freq       eps      Int      T**2         TX        TY        TZ
       cm**-1   L/(mol*cm) km/mol    a.u.
----------------------------------------------------------------------------
  6:     18.78   0.000049    0.25  0.000816  (-0.017266 -0.022148  0.005249)
  7:     25.26   0.000106    0.54  0.001310  ( 0.019714  0.030194  0.003084)
  8:     37.99   0.000036    0.18  0.000293  ( 0.004672 -0.010807  0.012410)
  9:     43.10   0.000137    0.69  0.000995  (-0.003077 -0.027812  0.014574)
 10:     50.32   0.000528    2.67  0.003277  (-0.022072  0.024057 -0.047020)
 11:     61.10   0.000070    0.35  0.000356  (-0.009574  0.004915 -0.015485)
 12:     68.84   0.000095    0.48  0.000433  (-0.011109 -0.010834 -0.013857)
 13:     73.68   0.000049    0.25  0.000208  (-0.002167 -0.003021 -0.013937)
 14:     99.84   0.000310    1.57  0.000969  ( 0.026466 -0.008695  0.013875)
 15:    118.25   0.000312    1.58  0.000823  ( 0.001750  0.012263  0.025868)
 16:    150.57   0.000078    0.39  0.000162  ( 0.006043 -0.010639  0.003502)
 17:    161.00   0.000090    0.45  0.000174  ( 0.006457  0.001847  0.011351)
 18:    180.37   0.000243    1.23  0.000420  (-0.005874  0.005177  0.018948)
 19:    192.62   0.001558    7.87  0.002524  (-0.027312  0.003734 -0.042001)
 20:    197.37   0.001232    6.22  0.001948  ( 0.026829 -0.032881 -0.012108)
 21:    212.16   0.000172    0.87  0.000252  (-0.001806  0.011386 -0.010936)
 22:    231.13   0.000053    0.27  0.000071  (-0.007776 -0.001564  0.002864)
 23:    237.34   0.000040    0.20  0.000053  (-0.003707  0.001863  0.005953)
 24:    252.06   0.000425    2.15  0.000526  ( 0.022402  0.004257 -0.002461)
 25:    269.91   0.000985    4.98  0.001138  (-0.030077  0.004703  0.014548)
 26:    282.77   0.000624    3.16  0.000689  ( 0.023396 -0.001108 -0.011856)
 27:    303.94   0.000010    0.05  0.000010  (-0.001960  0.002426 -0.000307)
 28:    316.38   0.000032    0.16  0.000031  ( 0.004122  0.000074  0.003781)
 29:    336.13   0.000395    2.00  0.000367  ( 0.017042  0.004798  0.007309)
 30:    349.81   0.000043    0.22  0.000039  ( 0.005845  0.000129 -0.002093)
 31:    359.98   0.000359    1.81  0.000311  (-0.008023 -0.009984 -0.012116)
 32:    364.12   0.000263    1.33  0.000225  ( 0.010917  0.009750  0.003348)
 33:    367.67   0.000592    2.99  0.000503  (-0.020913 -0.008001  0.001110)
 34:    381.68   0.001273    6.44  0.001041  (-0.030617  0.008854  0.005041)
 35:    433.31   0.000033    0.17  0.000024  (-0.001811 -0.004441 -0.000885)
 36:    462.30   0.000518    2.62  0.000350  ( 0.007805 -0.005494 -0.016083)
 37:    489.97   0.004740   23.95  0.003019  (-0.041074 -0.033332  0.014860)
 38:    499.63   0.006124   30.95  0.003825  (-0.048699  0.004586  0.037850)
 39:    516.80   0.005069   25.62  0.003061  (-0.053055  0.012066  0.010025)
 40:    535.57   0.002177   11.00  0.001268  (-0.033312 -0.008778 -0.009028)
 41:    557.57   0.009813   49.59  0.005492  ( 0.009581  0.042387 -0.060033)
 42:    575.37   0.014385   72.70  0.007802  ( 0.070595 -0.033530  0.041159)
 43:    582.85   0.001284    6.49  0.000687  (-0.021812  0.001677  0.014445)
 44:    591.66   0.004919   24.86  0.002595  ( 0.008417  0.002719 -0.050163)
 45:    623.59   0.055077  278.34  0.027562  (-0.145150  0.072585 -0.035003)
 46:    637.50   0.004662   23.56  0.002282  (-0.002250 -0.008538  0.046948)
 47:    660.00   0.005561   28.10  0.002629  ( 0.041954  0.026206 -0.013509)
 48:    691.10   0.006384   32.26  0.002883  (-0.044990 -0.027348 -0.010518)
 49:    702.95   0.011830   59.79  0.005252  (-0.067992 -0.018652  0.016766)
 50:    745.76   0.005288   26.72  0.002213  ( 0.004101 -0.017741  0.043370)
 51:    769.34   0.009208   46.53  0.003735  ( 0.050386  0.001519 -0.034552)
 52:    862.66   0.006528   32.99  0.002362  (-0.019404 -0.015175  0.041889)
 53:    980.46   0.015013   75.87  0.004778  (-0.043975 -0.035657  0.039662)
 54:   1032.16   0.050917  257.31  0.015394  ( 0.048709 -0.113557  0.011242)
 55:   1087.15   0.016861   85.21  0.004840  (-0.058042  0.007230 -0.037664)
 56:   1095.97   0.066225  334.68  0.018857  ( 0.005255  0.120253 -0.066094)
 57:   1111.02   0.020581  104.01  0.005781  (-0.009290 -0.033709  0.067515)
 58:   1125.47   0.044526  225.02  0.012346  ( 0.041853 -0.013112 -0.102090)
 59:   1130.02   0.006211   31.39  0.001715  (-0.017704  0.000929 -0.037427)
 60:   1133.81   0.059802  302.21  0.016459  ( 0.012156 -0.010699 -0.127268)
 61:   1144.33   0.261626  1322.15  0.071347  ( 0.005374 -0.193653 -0.183892)
 62:   1147.81   0.013337   67.40  0.003626  (-0.024419 -0.054302 -0.009006)
 63:   1161.75   0.072997  368.90  0.019608  ( 0.089377 -0.094431  0.051985)
 64:   1166.45   0.038925  196.71  0.010414  (-0.008911 -0.010605  0.101103)
 65:   1169.35   0.002847   14.39  0.000760  ( 0.019342 -0.015633  0.011891)
 66:   1189.92   0.009202   46.50  0.002413  (-0.027704  0.040510  0.002177)
 67:   1241.68   0.011957   60.42  0.003005  (-0.042650 -0.024451  0.024251)
 68:   1261.45   0.044731  226.05  0.011066  ( 0.077332  0.020368 -0.068342)
 69:   1268.30   0.009726   49.15  0.002393  ( 0.046939  0.013508 -0.002698)
 70:   1344.78   0.001125    5.69  0.000261  (-0.013852 -0.003752 -0.007430)
 71:   1382.97   0.016104   81.38  0.003634  (-0.051204  0.008903 -0.030542)
 72:   1394.54   0.016698   84.38  0.003737  ( 0.022298 -0.038106 -0.042277)
 73:   1807.52   0.091916  464.51  0.015869  (-0.047222 -0.101880 -0.057092)
 74:   3601.55   0.047694  241.03  0.004133  (-0.056125  0.008753  0.030099)

--------------------------
THERMOCHEMISTRY AT 298.15K
--------------------------

Temperature         ...   298.15 K
Pressure            ...     1.00 atm
Total Mass          ...   395.07 AMU
Quasi RRHO          ...     True
Cut-Off Frequency   ...     1.00 cm^-1

Throughout the following assumptions are being made:
  (1) The electronic state is orbitally nondegenerate
      but the spin degeneracy is treated
  (2) There are no thermally accessible electronically excited states
  (3) Hindered rotations indicated by low frequency modes are not
      treated as such but are treated as vibrations and this may
      cause some error
  (4) All equations used are the standard statistical mechanics
      equations for an ideal gas
  (5) All vibrations are strictly harmonic

freq.      18.78  E(vib)   ...       0.57
freq.      25.26  E(vib)   ...       0.56
freq.      37.99  E(vib)   ...       0.54
freq.      43.10  E(vib)   ...       0.53
freq.      50.32  E(vib)   ...       0.52
freq.      61.10  E(vib)   ...       0.51
freq.      68.84  E(vib)   ...       0.50
freq.      73.68  E(vib)   ...       0.49
freq.      99.84  E(vib)   ...       0.46
freq.     118.25  E(vib)   ...       0.44
freq.     150.57  E(vib)   ...       0.40
freq.     161.00  E(vib)   ...       0.39
freq.     180.37  E(vib)   ...       0.37
freq.     192.62  E(vib)   ...       0.36
freq.     197.37  E(vib)   ...       0.35
freq.     212.16  E(vib)   ...       0.34
freq.     231.13  E(vib)   ...       0.32
freq.     237.34  E(vib)   ...       0.32
freq.     252.06  E(vib)   ...       0.30
freq.     269.91  E(vib)   ...       0.29
freq.     282.77  E(vib)   ...       0.28
freq.     303.94  E(vib)   ...       0.26
freq.     316.38  E(vib)   ...       0.25
freq.     336.13  E(vib)   ...       0.24
freq.     349.81  E(vib)   ...       0.23
freq.     359.98  E(vib)   ...       0.22
freq.     364.12  E(vib)   ...       0.22
freq.     367.67  E(vib)   ...       0.21
freq.     381.68  E(vib)   ...       0.21
freq.     433.31  E(vib)   ...       0.17
freq.     462.30  E(vib)   ...       0.16
freq.     489.97  E(vib)   ...       0.15
freq.     499.63  E(vib)   ...       0.14
freq.     516.80  E(vib)   ...       0.13
freq.     535.57  E(vib)   ...       0.12
freq.     557.57  E(vib)   ...       0.12
freq.     575.37  E(vib)   ...       0.11
freq.     582.85  E(vib)   ...       0.11
freq.     591.66  E(vib)   ...       0.10
freq.     623.59  E(vib)   ...       0.09
freq.     637.50  E(vib)   ...       0.09
freq.     660.00  E(vib)   ...       0.08
freq.     691.10  E(vib)   ...       0.07
freq.     702.95  E(vib)   ...       0.07
freq.     745.76  E(vib)   ...       0.06
freq.     769.34  E(vib)   ...       0.06
freq.     862.66  E(vib)   ...       0.04
freq.     980.46  E(vib)   ...       0.02
freq.    1032.16  E(vib)   ...       0.02
freq.    1087.15  E(vib)   ...       0.02
freq.    1095.97  E(vib)   ...       0.02
freq.    1111.02  E(vib)   ...       0.01
freq.    1125.47  E(vib)   ...       0.01
freq.    1130.02  E(vib)   ...       0.01
freq.    1133.81  E(vib)   ...       0.01
freq.    1144.33  E(vib)   ...       0.01
freq.    1147.81  E(vib)   ...       0.01
freq.    1161.75  E(vib)   ...       0.01
freq.    1166.45  E(vib)   ...       0.01
freq.    1169.35  E(vib)   ...       0.01
freq.    1189.92  E(vib)   ...       0.01
freq.    1241.68  E(vib)   ...       0.01
freq.    1261.45  E(vib)   ...       0.01
freq.    1268.30  E(vib)   ...       0.01
freq.    1344.78  E(vib)   ...       0.01
freq.    1382.97  E(vib)   ...       0.01
freq.    1394.54  E(vib)   ...       0.00
freq.    1807.52  E(vib)   ...       0.00
freq.    3601.55  E(vib)   ...       0.00

------------
INNER ENERGY
------------

The inner energy is: U= E(el) + E(ZPE) + E(vib) + E(rot) + E(trans)
    E(el)   - is the total energy from the electronic structure calculation
              = E(kin-el) + E(nuc-el) + E(el-el) + E(nuc-nuc)
    E(ZPE)  - the the zero temperature vibrational energy from the frequency calculation
    E(vib)  - the the finite temperature correction to E(ZPE) due to population
              of excited vibrational states
    E(rot)  - is the rotational thermal energy
    E(trans)- is the translational thermal energy

Summary of contributions to the inner energy U:
Electronic energy                ...  -1854.40945011 Eh
Zero point energy                ...      0.10402241 Eh      65.27 kcal/mol
Thermal vibrational correction   ...      0.02040483 Eh      12.80 kcal/mol
Thermal rotational correction    ...      0.00141627 Eh       0.89 kcal/mol
Thermal translational correction ...      0.00141627 Eh       0.89 kcal/mol
-----------------------------------------------------------------------
Total thermal energy                  -1854.28219032 Eh

Summary of corrections to the electronic energy:
(perhaps to be used in another calculation)
Total thermal correction                  0.02323738 Eh      14.58 kcal/mol
Non-thermal (ZPE) correction              0.10402241 Eh      65.27 kcal/mol
-----------------------------------------------------------------------
Total correction                          0.12725979 Eh      79.86 kcal/mol

--------
ENTHALPY
--------

The enthalpy is H = U + kB*T
                kB is Boltzmann's constant
Total thermal energy              ...  -1854.28219032 Eh
Thermal Enthalpy correction       ...      0.00094421 Eh       0.59 kcal/mol
-----------------------------------------------------------------------
Total Enthalpy                    ...  -1854.28124611 Eh

Note: Only C1 symmetry has been detected, increase convergence thresholds
      if your molecule has a higher symmetry. Symmetry factor of 1.0 is
      used for the rotational entropy correction.

Note: Rotational entropy computed according to Herzberg
Infrared and Raman Spectra, Chapter V,1, Van Nostrand Reinhold, 1945
Point Group:  C1, Symmetry Number:   1
Rotational constants in cm-1:     0.020123     0.004045     0.004001

Vibrational entropy computed according to the QRRHO of S. Grimme
Chem.Eur.J. 2012 18 9955 using a reference frequency of 100.0 cm-1

-------
ENTROPY
-------

The entropy contributions are T*S = T*(S(el)+S(vib)+S(rot)+S(trans))
     S(el)   - electronic entropy
     S(vib)  - vibrational entropy
     S(rot)  - rotational entropy
     S(trans)- translational entropy
The entropies will be listed as multiplied by the temperature to get
units of energy

Electronic entropy                ...      0.00065446 Eh      0.41 kcal/mol
Vibrational entropy               ...      0.03694910 Eh     23.19 kcal/mol

                             ****ORCA TERMINATED NORMALLY****
TOTAL RUN TIME: 0 days 0 hours 23 minutes 46 seconds 985 msec
