                         Program Version 6.0.1  -  RELEASE   -
|  1> !TPSSh def2-TZVP opt d3 TightSCF SlowConv defgrid2
|  2>
|  3> %pal
|  4> nprocs 20
|  5> end
|  6>
|  7> %scf
|  8> MaxIter 1500
|  9> end
| 10>
| 11> %maxcore 8000
| 12>
| 13> !CPCM
| 14> %cpcm smd true
| 15> SMDsolvent "ACETONITRILE"
| 16> end
| 17>
| 18> * xyz -1 2
| 19> 6        6.856165000     27.192116000      1.751510000
| 20> 6        6.229604000     25.803627000      2.099502000
| 21> 6        7.271743000     24.654678000      2.293887000
| 22> 6        6.708858000     23.399624000      3.054274000
| 23> 6        7.543584000     22.172258000      2.874312000
| 24> 6        7.148988000     20.826380000      2.333543000
| 25> 6        7.198436000     20.691602000      0.785195000
| 26> 6        6.800643000     19.268516000      0.251173000
| 27> 9        7.736102000     27.080281000      0.750104000
| 28> 9        7.471879000     27.718498000      2.812155000
| 29> 9        5.880275000     28.023033000      1.372215000
| 30> 9        5.503977000     25.961249000      3.227360000
| 31> 9        5.396519000     25.467532000      1.092081000
| 32> 9        7.696628000     24.261986000      1.072313000
| 33> 9        8.334703000     25.134721000      2.978209000
| 34> 9        6.650497000     23.731829000      4.380264000
| 35> 9        5.445190000     23.169034000      2.628542000
| 36> 9        8.842556000     22.344217000      3.098494000
| 37> 9        8.000140000     19.906116000      2.868245000
| 38> 9        5.887858000     20.520168000      2.744529000
| 39> 9        6.378105000     21.660536000      0.281346000
| 40> 9        8.469520000     21.022610000      0.402133000
| 41> 8        7.722296000     18.431419000      0.261170000
| 42> 8        5.613461000     19.139975000     -0.102152000
| 43> 8        3.313787000     20.639311000      0.271454000
| 44> 1        2.754960000     19.970339000      0.688133000
| 45> 1        4.175617000     20.183692000      0.135037000
| 46> 1        9.432565000     18.523462000      0.794773000
| 47> 8       10.361882000     18.384825000      1.084927000
| 48> 1       10.322875000     18.434501000      2.047961000
| 49> *
| 50>
| 51>                          ****END OF INPUT****
 Total Charge           Charge          ....   -1
 Multiplicity           Mult            ....    2
 Number of Electrons    NEL             ....  211
Dispersion correction           -0.034576637
FINAL SINGLE POINT ENERGY     -2006.905095699661
Dispersion correction             ... done (  0.0 sec)
Dispersion correction           -0.034632054
FINAL SINGLE POINT ENERGY     -2006.905240094284
Dispersion correction             ... done (  0.0 sec)
Dispersion correction           -0.034703300
FINAL SINGLE POINT ENERGY     -2006.905351227705
Dispersion correction             ... done (  0.0 sec)
FINAL SINGLE POINT ENERGY     -2006.905482836148
FINAL SINGLE POINT ENERGY     -2006.905522408335
FINAL SINGLE POINT ENERGY     -2006.905309247350
FINAL SINGLE POINT ENERGY     -2006.900300988634
FINAL SINGLE POINT ENERGY     -2006.905393331244
FINAL SINGLE POINT ENERGY     -2006.905573581037
FINAL SINGLE POINT ENERGY     -2006.904879232958
FINAL SINGLE POINT ENERGY     -2006.905680362431
FINAL SINGLE POINT ENERGY     -2006.905688941625
FINAL SINGLE POINT ENERGY     -2006.905694462756
FINAL SINGLE POINT ENERGY     -2006.905698284630
FINAL SINGLE POINT ENERGY     -2006.905701826473
FINAL SINGLE POINT ENERGY     -2006.905706924170
FINAL SINGLE POINT ENERGY     -2006.905710328235
Dispersion correction             ... done (  0.0 sec)
Dispersion correction           -0.034760613
FINAL SINGLE POINT ENERGY     -2006.905713603957
Dispersion correction             ... done (  0.0 sec)
Dispersion correction           -0.034760902
FINAL SINGLE POINT ENERGY     -2006.905714676172
Dispersion correction             ... done (  0.0 sec)
                    ***********************HURRAY********************

CARTESIAN COORDINATES (ANGSTROEM)
---------------------------------
  C      6.915873   27.157447    1.747140
  C      6.261927   25.777691    2.080460
  C      7.286888   24.619345    2.311808
  C      6.688821   23.375671    3.063913
  C      7.510415   22.136307    2.907520
  C      7.103428   20.792764    2.370231
  C      7.188780   20.641721    0.824563
  C      6.779803   19.218289    0.292909
  F      7.842922   27.027516    0.792118
  F      7.483245   27.688657    2.832711
  F      5.967571   27.993158    1.312130
  F      5.505061   25.947366    3.186715
  F      5.455854   25.443411    1.052267
  F      7.742076   24.214061    1.104980
  F      8.335390   25.092873    3.022444
  F      6.603259   23.714665    4.386708
  F      5.432639   23.159995    2.609420
  F      8.808168   22.292069    3.148746
  F      7.929189   19.861297    2.926167
  F      5.830729   20.512374    2.758790
  F      6.397026   21.615456    0.285626
  F      8.476180   20.950124    0.475444
  O      7.702719   18.383405    0.253512
  O      5.580532   19.093771   -0.015942
  O      3.301326   20.654196    0.238905
  H      2.712446   19.995842    0.630845
  H      4.160409   20.183459    0.147764
  H      9.382184   18.469104    0.838715
  O     10.316612   18.431095    1.147282
  H     10.447942   19.275008    1.598798

 Multiplicity           Mult            ....    2
 Number of Electrons    NEL             ....  211
 Basis Dimension        Dim             ....  830

ORBITAL ENERGIES
----------------
                 SPIN UP ORBITALS
  NO   OCC          E(Eh)            E(eV)
   0   1.0000     -24.665816      -671.1910
   1   1.0000     -24.659973      -671.0320
   2   1.0000     -24.658871      -671.0020
   3   1.0000     -24.658315      -670.9869
   4   1.0000     -24.657704      -670.9702
   5   1.0000     -24.657261      -670.9582
   6   1.0000     -24.656792      -670.9454
   7   1.0000     -24.656622      -670.9408
   8   1.0000     -24.652858      -670.8384
   9   1.0000     -24.644201      -670.6028
  10   1.0000     -24.637306      -670.4152
  11   1.0000     -24.636556      -670.3948
  12   1.0000     -24.622194      -670.0040
  13   1.0000     -24.621980      -669.9981
  14   1.0000     -19.014961      -517.4234
  15   1.0000     -19.013755      -517.3906
  16   1.0000     -19.010697      -517.3074
  17   1.0000     -19.010667      -517.3065
  18   1.0000     -10.394358      -282.8449
  19   1.0000     -10.341697      -281.4119
  20   1.0000     -10.339709      -281.3578
  21   1.0000     -10.338463      -281.3239
  22   1.0000     -10.321036      -280.8497
  23   1.0000     -10.288655      -279.9685
  24   1.0000     -10.257510      -279.1210
  25   1.0000     -10.210751      -277.8487
  26   1.0000      -1.320845       -35.9420
  27   1.0000      -1.292464       -35.1697
  28   1.0000      -1.276474       -34.7346
  29   1.0000      -1.271122       -34.5890
  30   1.0000      -1.264980       -34.4218
  31   1.0000      -1.254094       -34.1256
  32   1.0000      -1.239323       -33.7237
  33   1.0000      -1.235393       -33.6167
  34   1.0000      -1.230311       -33.4785
  35   1.0000      -1.226645       -33.3787
  36   1.0000      -1.219617       -33.1875
  37   1.0000      -1.211916       -32.9779
  38   1.0000      -1.203240       -32.7418
  39   1.0000      -1.183817       -32.2133
  40   1.0000      -1.020068       -27.7575
  41   1.0000      -0.951210       -25.8837
  42   1.0000      -0.948265       -25.8036
  43   1.0000      -0.934712       -25.4348
  44   1.0000      -0.828328       -22.5399
  45   1.0000      -0.806894       -21.9567
  46   1.0000      -0.770137       -20.9565
  47   1.0000      -0.732771       -19.9397
  48   1.0000      -0.692543       -18.8451
  49   1.0000      -0.663020       -18.0417
  50   1.0000      -0.636632       -17.3236
  51   1.0000      -0.617938       -16.8150
  52   1.0000      -0.615431       -16.7467
  53   1.0000      -0.608055       -16.5460
  54   1.0000      -0.594530       -16.1780
  55   1.0000      -0.591419       -16.0933
  56   1.0000      -0.589917       -16.0524
  57   1.0000      -0.581784       -15.8311
  58   1.0000      -0.574448       -15.6315
  59   1.0000      -0.571082       -15.5399
  60   1.0000      -0.563806       -15.3419
  61   1.0000      -0.553585       -15.0638
  62   1.0000      -0.551416       -15.0048
  63   1.0000      -0.542904       -14.7732
  64   1.0000      -0.526338       -14.3224
  65   1.0000      -0.499707       -13.5977
  66   1.0000      -0.490594       -13.3497
  67   1.0000      -0.483604       -13.1595
  68   1.0000      -0.478241       -13.0136
  69   1.0000      -0.474436       -12.9101
  70   1.0000      -0.472631       -12.8610
  71   1.0000      -0.468203       -12.7404
  72   1.0000      -0.466038       -12.6815
  73   1.0000      -0.457621       -12.4525
  74   1.0000      -0.451811       -12.2944
  75   1.0000      -0.450859       -12.2685
  76   1.0000      -0.447493       -12.1769
  77   1.0000      -0.443289       -12.0625
  78   1.0000      -0.441909       -12.0250
  79   1.0000      -0.433954       -11.8085
  80   1.0000      -0.432805       -11.7772
  81   1.0000      -0.430408       -11.7120
  82   1.0000      -0.428057       -11.6480
  83   1.0000      -0.422084       -11.4855
  84   1.0000      -0.419664       -11.4196
  85   1.0000      -0.417558       -11.3623
  86   1.0000      -0.415008       -11.2929
  87   1.0000      -0.412029       -11.2119
  88   1.0000      -0.410288       -11.1645
  89   1.0000      -0.409175       -11.1342
  90   1.0000      -0.405174       -11.0253
  91   1.0000      -0.399039       -10.8584
  92   1.0000      -0.396432       -10.7875
  93   1.0000      -0.388059       -10.5596
  94   1.0000      -0.383632       -10.4392
  95   1.0000      -0.380341       -10.3496
  96   1.0000      -0.352827        -9.6009
  97   1.0000      -0.337198        -9.1756
  98   1.0000      -0.335475        -9.1287
  99   1.0000      -0.329967        -8.9789
 100   1.0000      -0.262840        -7.1522
 101   1.0000      -0.260201        -7.0804
 102   1.0000      -0.257338        -7.0025
 103   1.0000      -0.250843        -6.8258
 104   1.0000      -0.238094        -6.4789
 105   1.0000      -0.233631        -6.3574
 106   0.0000      -0.017389        -0.4732
 107   0.0000       0.002584         0.0703
 108   0.0000       0.009052         0.2463
 109   0.0000       0.029196         0.7945
 110   0.0000       0.057394         1.5618

                 SPIN DOWN ORBITALS
  NO   OCC          E(Eh)            E(eV)
   0   1.0000     -24.661546      -671.0748
   1   1.0000     -24.659975      -671.0320
   2   1.0000     -24.658868      -671.0019
   3   1.0000     -24.658295      -670.9863
   4   1.0000     -24.657706      -670.9703
   5   1.0000     -24.657152      -670.9552
   6   1.0000     -24.656786      -670.9452
   7   1.0000     -24.656594      -670.9400
   8   1.0000     -24.652779      -670.8362
   9   1.0000     -24.642908      -670.5676
  10   1.0000     -24.636901      -670.4042
  11   1.0000     -24.636175      -670.3844
  12   1.0000     -24.622185      -670.0037
  13   1.0000     -24.621978      -669.9981
  14   1.0000     -19.014960      -517.4234
  15   1.0000     -19.013754      -517.3905
  16   1.0000     -19.010534      -517.3029
  17   1.0000     -19.010464      -517.3010
  18   1.0000     -10.394325      -282.8440
  19   1.0000     -10.341631      -281.4101
  20   1.0000     -10.339343      -281.3478
  21   1.0000     -10.339169      -281.3431
  22   1.0000     -10.322009      -280.8762
  23   1.0000     -10.287848      -279.9466
  24   1.0000     -10.241931      -278.6971
  25   1.0000     -10.210657      -277.8461
  26   1.0000      -1.320817       -35.9413
  27   1.0000      -1.291966       -35.1562
  28   1.0000      -1.275958       -34.7206
  29   1.0000      -1.269554       -34.5463
  30   1.0000      -1.263141       -34.3718
  31   1.0000      -1.248119       -33.9630
  32   1.0000      -1.238997       -33.7148
  33   1.0000      -1.235350       -33.6156
  34   1.0000      -1.230287       -33.4778
  35   1.0000      -1.226438       -33.3731
  36   1.0000      -1.219488       -33.1840
  37   1.0000      -1.210241       -32.9323
  38   1.0000      -1.202294       -32.7161
  39   1.0000      -1.183728       -32.2109
  40   1.0000      -1.019731       -27.7483
  41   1.0000      -0.951153       -25.8822
  42   1.0000      -0.948257       -25.8034
  43   1.0000      -0.934387       -25.4260
  44   1.0000      -0.820514       -22.3273
  45   1.0000      -0.798805       -21.7366
  46   1.0000      -0.768960       -20.9245
  47   1.0000      -0.726609       -19.7720
  48   1.0000      -0.689414       -18.7599
  49   1.0000      -0.662354       -18.0236
  50   1.0000      -0.632705       -17.2168
  51   1.0000      -0.616467       -16.7749
  52   1.0000      -0.614383       -16.7182
  53   1.0000      -0.607895       -16.5417
  54   1.0000      -0.593181       -16.1413
  55   1.0000      -0.590344       -16.0641
  56   1.0000      -0.584142       -15.8953
  57   1.0000      -0.580492       -15.7960
  58   1.0000      -0.573258       -15.5991
  59   1.0000      -0.569016       -15.4837
  60   1.0000      -0.562871       -15.3165
  61   1.0000      -0.552118       -15.0239
  62   1.0000      -0.550076       -14.9683
  63   1.0000      -0.541280       -14.7290
  64   1.0000      -0.525795       -14.3076
  65   1.0000      -0.491209       -13.3665
  66   1.0000      -0.483413       -13.1543
  67   1.0000      -0.480388       -13.0720
  68   1.0000      -0.474521       -12.9124
  69   1.0000      -0.474269       -12.9055
  70   1.0000      -0.469651       -12.7798
  71   1.0000      -0.466368       -12.6905
  72   1.0000      -0.464048       -12.6274
  73   1.0000      -0.456362       -12.4182
  74   1.0000      -0.450725       -12.2648
  75   1.0000      -0.449716       -12.2374
  76   1.0000      -0.446796       -12.1579
  77   1.0000      -0.442907       -12.0521
  78   1.0000      -0.441501       -12.0139
  79   1.0000      -0.433208       -11.7882
  80   1.0000      -0.431809       -11.7501
  81   1.0000      -0.427299       -11.6274
  82   1.0000      -0.426352       -11.6016
  83   1.0000      -0.421875       -11.4798
  84   1.0000      -0.419313       -11.4101
  85   1.0000      -0.417083       -11.3494
  86   1.0000      -0.414579       -11.2813
  87   1.0000      -0.411673       -11.2022
  88   1.0000      -0.409810       -11.1515
  89   1.0000      -0.408417       -11.1136
  90   1.0000      -0.404662       -11.0114
  91   1.0000      -0.398445       -10.8422
  92   1.0000      -0.395740       -10.7686
  93   1.0000      -0.387751       -10.5512
  94   1.0000      -0.382641       -10.4122
  95   1.0000      -0.379315       -10.3217
  96   1.0000      -0.349953        -9.5227
  97   1.0000      -0.337057        -9.1718
  98   1.0000      -0.334681        -9.1071
  99   1.0000      -0.328814        -8.9475
 100   1.0000      -0.262683        -7.1480
 101   1.0000      -0.260186        -7.0800
 102   1.0000      -0.250587        -6.8188
 103   1.0000      -0.240047        -6.5320
 104   1.0000      -0.237577        -6.4648
 105   0.0000      -0.127539        -3.4705
 106   0.0000      -0.012892        -0.3508
 107   0.0000       0.004733         0.1288
 108   0.0000       0.012745         0.3468
 109   0.0000       0.033925         0.9232

MULLIKEN ATOMIC CHARGES AND SPIN POPULATIONS
--------------------------------------------
   0 C :    0.409029    0.001322
   1 C :    0.294416    0.002942
   2 C :    0.282252    0.009398
   3 C :    0.326574   -0.002592
   4 C :    0.090311    0.856579
   5 C :    0.327561   -0.035320
   6 C :    0.277541    0.032132
   7 C :    0.295987    0.003376
   8 F :   -0.136241   -0.000052
   9 F :   -0.134245    0.000028
  10 F :   -0.133351    0.000372
  11 F :   -0.147658   -0.000100
  12 F :   -0.145027    0.000150
  13 F :   -0.155909    0.000053
  14 F :   -0.153299    0.002100
  15 F :   -0.162136    0.024078
  16 F :   -0.157047    0.000186
  17 F :   -0.137152    0.080341
  18 F :   -0.171437    0.006829
  19 F :   -0.169700    0.006261
  20 F :   -0.197748   -0.000638
  21 F :   -0.199522   -0.000116
  22 O :   -0.498962    0.005677
  23 O :   -0.501841    0.006973
  24 O :   -0.735214    0.000018
  25 H :    0.333012   -0.000003
  26 H :    0.351636   -0.000018
  27 H :    0.347236   -0.000039
  28 O :   -0.731339    0.000026
  29 H :    0.332272    0.000038
Sum of atomic charges         :   -1.0000000

LOEWDIN ATOMIC CHARGES AND SPIN POPULATIONS
-------------------------------------------
   0 C :   -0.667353    0.000979
   1 C :   -0.466543    0.003325
   2 C :   -0.453724    0.015535
   3 C :   -0.479159    0.066890
   4 C :   -0.163094    0.657462
   5 C :   -0.484034    0.056798
   6 C :   -0.440044    0.027704
   7 C :   -0.641557    0.005491
   8 F :    0.225766   -0.000022
   9 F :    0.226984    0.000069
  10 F :    0.226208    0.000439
  11 F :    0.223272   -0.000026
  12 F :    0.224944    0.000232
  13 F :    0.224073    0.001139
  14 F :    0.221412    0.002705
  15 F :    0.193325    0.026520
  16 F :    0.223666    0.002186
  17 F :    0.253915    0.104470
  18 F :    0.200410    0.007435
  19 F :    0.204027    0.008062
  20 F :    0.177003    0.000555
  21 F :    0.170072    0.000521
  22 O :   -0.022724    0.005151
  23 O :   -0.024677    0.006329
  24 O :   -0.369694    0.000019
  25 H :    0.156637   -0.000002
  26 H :    0.139994   -0.000017
  27 H :    0.136513   -0.000017
  28 O :   -0.366579    0.000035
  29 H :    0.150962    0.000034

  Mayer bond orders larger than 0.100000
B(  0-C ,  1-C ) :   0.9671 B(  0-C ,  8-F ) :   1.1587 B(  0-C ,  9-F ) :   1.1693
B(  0-C , 10-F ) :   1.1622 B(  1-C ,  2-C ) :   0.9275 B(  1-C , 11-F ) :   1.1001
B(  1-C , 12-F ) :   1.1136 B(  2-C ,  3-C ) :   0.9278 B(  2-C , 13-F ) :   1.0815
B(  2-C , 14-F ) :   1.0948 B(  3-C ,  4-C ) :   1.0723 B(  3-C , 15-F ) :   1.0766
B(  3-C , 16-F ) :   1.0842 B(  4-C ,  5-C ) :   1.0129 B(  4-C , 17-F ) :   1.1255
B(  5-C ,  6-C ) :   0.9162 B(  5-C , 18-F ) :   1.0680 B(  5-C , 19-F ) :   1.0969
B(  6-C ,  7-C ) :   0.8838 B(  6-C , 20-F ) :   1.0366 B(  6-C , 21-F ) :   1.0286
B(  7-C , 22-O ) :   1.7153 B(  7-C , 23-O ) :   1.7233 B( 22-O , 27-H ) :   0.1179
B( 23-O , 26-H ) :   0.1114 B( 24-O , 25-H ) :   0.8980 B( 24-O , 26-H ) :   0.8186
B( 27-H , 28-O ) :   0.8238 B( 28-O , 29-H ) :   0.8988

Dispersion correction           -0.034759967
FINAL SINGLE POINT ENERGY     -2006.905715117937

DIPOLE MOMENT
-------------

Method             : SCF
Type of density    : Electron Density
Multiplicity       :   2
Irrep              :   0
Energy             : -2006.8709551508597997 Eh
Relativity type    :
Basis              : AO
                                X                 Y                 Z
Electronic contribution:      1.661556266      32.924482892      10.995932779
Nuclear contribution   :     -1.603345882     -26.121576975      -7.949076579
                        -----------------------------------------
Total Dipole Moment    :      0.058210384       6.802905917       3.046856200
                        -----------------------------------------
Magnitude (a.u.)       :      7.454277300
Magnitude (Debye)      :     18.947267133

Rotational constants in cm-1:             0.011913             0.003878             0.003580
Rotational constants in MHz :           357.131007           116.256887           107.330435

                             ****ORCA TERMINATED NORMALLY****
TOTAL RUN TIME: 0 days 0 hours 43 minutes 14 seconds 767 msec
