                         Program Version 6.0.1  -  RELEASE   -
|  1> !TPSSh def2-TZVP opt d3 TightSCF SlowConv defgrid2
|  2>
|  3> %pal
|  4> nprocs 20
|  5> end
|  6>
|  7> %scf
|  8> MaxIter 1500
|  9> end
| 10>
| 11> %maxcore 8000
| 12>
| 13> !CPCM
| 14> %cpcm smd true
| 15> SMDsolvent "ACETONITRILE"
| 16> end
| 17>
| 18> * xyz -2 2
| 19> 6        7.369539000     27.836887000      2.875128000
| 20> 6        6.819253000     26.400301000      3.045578000
| 21> 6        7.252508000     25.202707000      2.139346000
| 22> 6        6.767447000     23.698968000      2.201011000
| 23> 6        7.200514000     22.514484000      1.272699000
| 24> 6        6.737514000     21.035786000      1.471519000
| 25> 6        7.014916000     19.967369000      0.372037000
| 26> 6        6.730507000     18.499223000      0.822816000
| 27> 9        7.054685000     28.330751000      1.665850000
| 28> 9        8.706365000     27.856437000      3.007823000
| 29> 9        6.873486000     28.714717000      3.794736000
| 30> 9        7.124661000     26.053773000      4.343072000
| 31> 9        5.454460000     26.523591000      2.932174000
| 32> 9        6.938251000     25.618494000      0.847962000
| 33> 9        8.632090000     25.140529000      2.276703000
| 34> 9        7.090691000     23.283282000      3.489349000
| 35> 9        5.387177000     23.771388000      2.082759000
| 36> 9        6.815749000     22.871504000     -0.002759000
| 37> 9        8.579481000     22.484030000      1.318326000
| 38> 9        7.314704000     20.590745000      2.629644000
| 39> 9        5.380414000     21.050262000      1.666380000
| 40> 9        6.254325000     20.290818000     -0.720906000
| 41> 9        8.326434000     20.103811000     -0.018342000
| 42> 8        7.683677000     17.901724000      1.369258000
| 43> 8        5.566190000     18.089731000      0.624048000
| 44> 8        3.365171000     18.904727000     -0.816130000
| 45> 1        2.732271000     18.255630000     -0.483062000
| 46> 1        4.199904000     18.696448000     -0.334087000
| 47> 1        9.196938000     18.592267000      1.950978000
| 48> 8       10.066233000     18.888142000      2.314280000
| 49> 1       10.068661000     19.842315000      2.166028000
| 50> *
| 51>
| 52>                          ****END OF INPUT****
 Total Charge           Charge          ....   -2
 Multiplicity           Mult            ....    2
 Number of Electrons    NEL             ....  221
Dispersion correction           -0.034584345
FINAL SINGLE POINT ENERGY     -2106.888525780716
Dispersion correction             ... done (  0.0 sec)
Dispersion correction           -0.034530419
FINAL SINGLE POINT ENERGY     -2106.888563505506
Dispersion correction             ... done (  0.0 sec)
Dispersion correction           -0.034528602
FINAL SINGLE POINT ENERGY     -2106.888579135574
Dispersion correction             ... done (  0.0 sec)
FINAL SINGLE POINT ENERGY     -2106.888588553328
FINAL SINGLE POINT ENERGY     -2106.888593178611
FINAL SINGLE POINT ENERGY     -2106.888595977063
FINAL SINGLE POINT ENERGY     -2106.888597687528
FINAL SINGLE POINT ENERGY     -2106.888598831795
FINAL SINGLE POINT ENERGY     -2106.888599994239
FINAL SINGLE POINT ENERGY     -2106.888601862332
FINAL SINGLE POINT ENERGY     -2106.888584573713
FINAL SINGLE POINT ENERGY     -2106.888604981393
FINAL SINGLE POINT ENERGY     -2106.888607960188
FINAL SINGLE POINT ENERGY     -2106.888611854520
FINAL SINGLE POINT ENERGY     -2106.888605865523
FINAL SINGLE POINT ENERGY     -2106.888619515977
FINAL SINGLE POINT ENERGY     -2106.888622346762
Dispersion correction             ... done (  0.0 sec)
Dispersion correction           -0.034496433
FINAL SINGLE POINT ENERGY     -2106.888624151714
Dispersion correction             ... done (  0.0 sec)
Dispersion correction           -0.034506269
FINAL SINGLE POINT ENERGY     -2106.888628412361
Dispersion correction             ... done (  0.0 sec)
                    ***********************HURRAY********************

CARTESIAN COORDINATES (ANGSTROEM)
---------------------------------
  C      7.304885   27.849027    2.863778
  C      6.843165   26.385171    3.069191
  C      7.235481   25.223179    2.101389
  C      6.807824   23.706617    2.199545
  C      7.199014   22.526259    1.242625
  C      6.757671   21.041644    1.449003
  C      7.058892   19.954300    0.372924
  C      6.721582   18.496553    0.819239
  F      6.862776   28.332370    1.690861
  F      8.645485   27.936757    2.880416
  F      6.844648   28.690188    3.832734
  F      7.294075   26.040419    4.321128
  F      5.469421   26.445085    3.094727
  F      6.790678   25.641585    0.853343
  F      8.622833   25.212355    2.107688
  F      7.246987   23.304239    3.458012
  F      5.419940   23.736150    2.191837
  F      6.740973   22.891288   -0.007484
  F      8.578499   22.509183    1.216264
  F      7.329470   20.617931    2.619709
  F      5.397323   21.042226    1.626218
  F      6.354767   20.285885   -0.755423
  F      8.389224   20.056190    0.041627
  O      7.641473   17.876323    1.396655
  O      5.556245   18.111340    0.580268
  O      3.385533   19.007258   -0.838276
  H      2.744307   18.363348   -0.510235
  H      4.219608   18.778120   -0.363187
  H      9.157837   18.486555    2.039862
  O     10.022814   18.755602    2.434280
  H     10.060783   19.707693    2.275498

 Multiplicity           Mult            ....    2
 Number of Electrons    NEL             ....  221
 Basis Dimension        Dim             ....  861

ORBITAL ENERGIES
----------------
                 SPIN UP ORBITALS
  NO   OCC          E(Eh)            E(eV)
   0   1.0000     -24.638011      -670.4344
   1   1.0000     -24.637876      -670.4307
   2   1.0000     -24.630806      -670.2383
   3   1.0000     -24.620704      -669.9634
   4   1.0000     -24.620391      -669.9549
   5   1.0000     -24.614350      -669.7905
   6   1.0000     -24.613152      -669.7579
   7   1.0000     -24.608273      -669.6252
   8   1.0000     -24.607908      -669.6152
   9   1.0000     -24.606403      -669.5743
  10   1.0000     -24.605829      -669.5586
  11   1.0000     -24.604157      -669.5131
  12   1.0000     -24.603858      -669.5050
  13   1.0000     -24.601584      -669.4431
  14   1.0000     -24.600900      -669.4245
  15   1.0000     -19.008825      -517.2564
  16   1.0000     -19.007513      -517.2207
  17   1.0000     -18.997718      -516.9542
  18   1.0000     -18.997617      -516.9514
  19   1.0000     -10.364153      -282.0229
  20   1.0000     -10.296300      -280.1766
  21   1.0000     -10.286834      -279.9190
  22   1.0000     -10.281655      -279.7781
  23   1.0000     -10.279971      -279.7322
  24   1.0000     -10.274457      -279.5822
  25   1.0000     -10.270835      -279.4836
  26   1.0000     -10.196127      -277.4507
  27   1.0000      -1.291267       -35.1372
  28   1.0000      -1.243018       -33.8242
  29   1.0000      -1.239093       -33.7174
  30   1.0000      -1.225147       -33.3379
  31   1.0000      -1.218515       -33.1575
  32   1.0000      -1.215863       -33.0853
  33   1.0000      -1.209402       -32.9095
  34   1.0000      -1.205821       -32.8120
  35   1.0000      -1.198822       -32.6216
  36   1.0000      -1.185438       -32.2574
  37   1.0000      -1.182620       -32.1807
  38   1.0000      -1.172490       -31.9051
  39   1.0000      -1.167300       -31.7638
  40   1.0000      -1.164882       -31.6981
  41   1.0000      -1.159881       -31.5620
  42   1.0000      -1.005508       -27.3613
  43   1.0000      -0.944185       -25.6926
  44   1.0000      -0.941593       -25.6220
  45   1.0000      -0.919696       -25.0262
  46   1.0000      -0.770300       -20.9609
  47   1.0000      -0.761254       -20.7148
  48   1.0000      -0.733831       -19.9686
  49   1.0000      -0.703360       -19.1394
  50   1.0000      -0.665155       -18.0998
  51   1.0000      -0.633348       -17.2343
  52   1.0000      -0.607367       -16.5273
  53   1.0000      -0.580117       -15.7858
  54   1.0000      -0.578788       -15.7496
  55   1.0000      -0.577464       -15.7136
  56   1.0000      -0.564977       -15.3738
  57   1.0000      -0.556622       -15.1465
  58   1.0000      -0.552742       -15.0409
  59   1.0000      -0.544520       -14.8172
  60   1.0000      -0.541869       -14.7450
  61   1.0000      -0.531125       -14.4526
  62   1.0000      -0.530517       -14.4361
  63   1.0000      -0.526516       -14.3272
  64   1.0000      -0.516762       -14.0618
  65   1.0000      -0.510480       -13.8909
  66   1.0000      -0.506370       -13.7790
  67   1.0000      -0.496733       -13.5168
  68   1.0000      -0.482850       -13.1390
  69   1.0000      -0.467573       -12.7233
  70   1.0000      -0.450707       -12.2644
  71   1.0000      -0.450254       -12.2520
  72   1.0000      -0.445294       -12.1171
  73   1.0000      -0.433709       -11.8018
  74   1.0000      -0.428955       -11.6725
  75   1.0000      -0.427501       -11.6329
  76   1.0000      -0.426167       -11.5966
  77   1.0000      -0.422281       -11.4909
  78   1.0000      -0.419507       -11.4154
  79   1.0000      -0.417561       -11.3624
  80   1.0000      -0.415447       -11.3049
  81   1.0000      -0.413975       -11.2648
  82   1.0000      -0.410572       -11.1722
  83   1.0000      -0.405095       -11.0232
  84   1.0000      -0.402868       -10.9626
  85   1.0000      -0.396120       -10.7790
  86   1.0000      -0.392842       -10.6898
  87   1.0000      -0.392754       -10.6874
  88   1.0000      -0.391263       -10.6468
  89   1.0000      -0.389993       -10.6123
  90   1.0000      -0.383855       -10.4452
  91   1.0000      -0.380851       -10.3635
  92   1.0000      -0.377431       -10.2704
  93   1.0000      -0.376241       -10.2380
  94   1.0000      -0.374967       -10.2034
  95   1.0000      -0.370769       -10.0892
  96   1.0000      -0.368886       -10.0379
  97   1.0000      -0.367870       -10.0102
  98   1.0000      -0.364492        -9.9183
  99   1.0000      -0.355742        -9.6802
 100   1.0000      -0.346432        -9.4269
 101   1.0000      -0.330938        -9.0053
 102   1.0000      -0.328396        -8.9361
 103   1.0000      -0.322043        -8.7632
 104   1.0000      -0.292574        -7.9613
 105   1.0000      -0.257096        -6.9959
 106   1.0000      -0.254397        -6.9225
 107   1.0000      -0.239686        -6.5222
 108   1.0000      -0.229188        -6.2365
 109   1.0000      -0.224794        -6.1170
 110   1.0000      -0.070485        -1.9180
 111   0.0000       0.004460         0.1214
 112   0.0000       0.029881         0.8131
 113   0.0000       0.046405         1.2628
 114   0.0000       0.055548         1.5115
 115   0.0000       0.065149         1.7728

                 SPIN DOWN ORBITALS
  NO   OCC          E(Eh)            E(eV)
   0   1.0000     -24.637997      -670.4340
   1   1.0000     -24.637863      -670.4303
   2   1.0000     -24.629772      -670.2102
   3   1.0000     -24.620424      -669.9558
   4   1.0000     -24.620104      -669.9471
   5   1.0000     -24.614251      -669.7878
   6   1.0000     -24.613008      -669.7540
   7   1.0000     -24.607968      -669.6169
   8   1.0000     -24.607601      -669.6069
   9   1.0000     -24.605930      -669.5614
  10   1.0000     -24.605337      -669.5453
  11   1.0000     -24.604088      -669.5113
  12   1.0000     -24.603750      -669.5021
  13   1.0000     -24.601102      -669.4300
  14   1.0000     -24.600384      -669.4105
  15   1.0000     -19.008827      -517.2565
  16   1.0000     -19.007515      -517.2208
  17   1.0000     -18.997376      -516.9449
  18   1.0000     -18.997274      -516.9421
  19   1.0000     -10.362734      -281.9843
  20   1.0000     -10.294100      -280.1167
  21   1.0000     -10.285372      -279.8792
  22   1.0000     -10.279048      -279.7071
  23   1.0000     -10.276547      -279.6391
  24   1.0000     -10.270861      -279.4843
  25   1.0000     -10.270116      -279.4641
  26   1.0000     -10.195740      -277.4402
  27   1.0000      -1.290440       -35.1147
  28   1.0000      -1.241985       -33.7961
  29   1.0000      -1.237993       -33.6875
  30   1.0000      -1.223973       -33.3060
  31   1.0000      -1.218109       -33.1464
  32   1.0000      -1.214696       -33.0535
  33   1.0000      -1.209277       -32.9061
  34   1.0000      -1.204429       -32.7742
  35   1.0000      -1.197281       -32.5797
  36   1.0000      -1.184717       -32.2378
  37   1.0000      -1.182120       -32.1671
  38   1.0000      -1.171670       -31.8828
  39   1.0000      -1.166462       -31.7411
  40   1.0000      -1.164641       -31.6915
  41   1.0000      -1.158884       -31.5348
  42   1.0000      -1.004854       -27.3435
  43   1.0000      -0.944146       -25.6915
  44   1.0000      -0.941586       -25.6219
  45   1.0000      -0.919118       -25.0105
  46   1.0000      -0.762497       -20.7486
  47   1.0000      -0.755186       -20.5497
  48   1.0000      -0.726244       -19.7621
  49   1.0000      -0.697691       -18.9851
  50   1.0000      -0.661535       -18.0013
  51   1.0000      -0.631240       -17.1769
  52   1.0000      -0.605224       -16.4690
  53   1.0000      -0.579177       -15.7602
  54   1.0000      -0.576262       -15.6809
  55   1.0000      -0.573992       -15.6191
  56   1.0000      -0.562571       -15.3083
  57   1.0000      -0.552639       -15.0381
  58   1.0000      -0.551110       -14.9965
  59   1.0000      -0.542894       -14.7729
  60   1.0000      -0.538003       -14.6398
  61   1.0000      -0.529442       -14.4069
  62   1.0000      -0.528079       -14.3698
  63   1.0000      -0.523708       -14.2508
  64   1.0000      -0.515619       -14.0307
  65   1.0000      -0.506300       -13.7771
  66   1.0000      -0.503922       -13.7124
  67   1.0000      -0.495692       -13.4885
  68   1.0000      -0.482686       -13.1345
  69   1.0000      -0.467549       -12.7227
  70   1.0000      -0.449897       -12.2423
  71   1.0000      -0.449005       -12.2181
  72   1.0000      -0.444702       -12.1009
  73   1.0000      -0.433262       -11.7897
  74   1.0000      -0.428094       -11.6490
  75   1.0000      -0.426919       -11.6170
  76   1.0000      -0.425721       -11.5845
  77   1.0000      -0.421487       -11.4693
  78   1.0000      -0.418840       -11.3972
  79   1.0000      -0.416853       -11.3432
  80   1.0000      -0.414395       -11.2763
  81   1.0000      -0.413001       -11.2383
  82   1.0000      -0.410002       -11.1567
  83   1.0000      -0.404224       -10.9995
  84   1.0000      -0.401917       -10.9367
  85   1.0000      -0.395313       -10.7570
  86   1.0000      -0.392347       -10.6763
  87   1.0000      -0.391925       -10.6648
  88   1.0000      -0.390406       -10.6235
  89   1.0000      -0.389229       -10.5915
  90   1.0000      -0.383513       -10.4359
  91   1.0000      -0.379564       -10.3285
  92   1.0000      -0.377073       -10.2607
  93   1.0000      -0.373541       -10.1646
  94   1.0000      -0.372447       -10.1348
  95   1.0000      -0.370189       -10.0734
  96   1.0000      -0.366699        -9.9784
  97   1.0000      -0.365987        -9.9590
  98   1.0000      -0.361130        -9.8269
  99   1.0000      -0.350320        -9.5327
 100   1.0000      -0.342545        -9.3211
 101   1.0000      -0.330526        -8.9941
 102   1.0000      -0.327852        -8.9213
 103   1.0000      -0.319702        -8.6995
 104   1.0000      -0.291738        -7.9386
 105   1.0000      -0.256907        -6.9908
 106   1.0000      -0.254372        -6.9218
 107   1.0000      -0.238144        -6.4802
 108   1.0000      -0.228330        -6.2132
 109   1.0000      -0.224420        -6.1068
 110   0.0000      -0.018680        -0.5083
 111   0.0000       0.017476         0.4755
 112   0.0000       0.036485         0.9928
 113   0.0000       0.051551         1.4028
 114   0.0000       0.064665         1.7596

MULLIKEN ATOMIC CHARGES AND SPIN POPULATIONS
--------------------------------------------
   0 C :    0.382666    0.067029
   1 C :    0.262514    0.121925
   2 C :    0.208562    0.224711
   3 C :    0.220041    0.249869
   4 C :    0.240635    0.166627
   5 C :    0.250279    0.084452
   6 C :    0.281749    0.037756
   7 C :    0.276211    0.019618
   8 F :   -0.157540   -0.001230
   9 F :   -0.157782   -0.001257
  10 F :   -0.167624    0.011615
  11 F :   -0.192103    0.000266
  12 F :   -0.192422    0.000375
  13 F :   -0.216211    0.000458
  14 F :   -0.214642    0.000334
  15 F :   -0.221391    0.000210
  16 F :   -0.217415   -0.000133
  17 F :   -0.207405   -0.001093
  18 F :   -0.207520   -0.000974
  19 F :   -0.197902   -0.000901
  20 F :   -0.198815   -0.000254
  21 F :   -0.205733   -0.000133
  22 F :   -0.208635    0.000298
  23 O :   -0.517016    0.010324
  24 O :   -0.523901    0.010156
  25 O :   -0.740805   -0.000013
  26 H :    0.329526    0.000002
  27 H :    0.352073   -0.000072
  28 H :    0.347569   -0.000138
  29 O :   -0.736120   -0.000051
  30 H :    0.329158    0.000220
Sum of atomic charges         :   -2.0000000

LOEWDIN ATOMIC CHARGES AND SPIN POPULATIONS
-------------------------------------------
   0 C :   -0.658119    0.056341
   1 C :   -0.479774    0.128810
   2 C :   -0.474376    0.199288
   3 C :   -0.475408    0.211291
   4 C :   -0.472273    0.150797
   5 C :   -0.463982    0.079837
   6 C :   -0.451337    0.041772
   7 C :   -0.647087    0.020886
   8 F :    0.199823    0.000636
   9 F :    0.199728    0.000628
  10 F :    0.164910    0.020223
  11 F :    0.164617    0.005297
  12 F :    0.163747    0.005384
  13 F :    0.134830    0.009414
  14 F :    0.137591    0.009154
  15 F :    0.127532    0.009886
  16 F :    0.133299    0.009477
  17 F :    0.150354    0.005884
  18 F :    0.150826    0.006007
  19 F :    0.174569    0.002143
  20 F :    0.169129    0.002653
  21 F :    0.157461    0.001501
  22 F :    0.151274    0.001968
  23 O :   -0.041938    0.010373
  24 O :   -0.044951    0.010359
  25 O :   -0.376369   -0.000025
  26 H :    0.154234   -0.000002
  27 H :    0.139402   -0.000039
  28 H :    0.135846   -0.000042
  29 O :   -0.372124   -0.000038
  30 H :    0.148566    0.000137

  Mayer bond orders larger than 0.100000
B(  0-C ,  1-C ) :   0.9639 B(  0-C ,  8-F ) :   1.1519 B(  0-C ,  9-F ) :   1.1517
B(  0-C , 10-F ) :   1.1072 B(  1-C ,  2-C ) :   0.9181 B(  1-C , 11-F ) :   1.0470
B(  1-C , 12-F ) :   1.0454 B(  2-C ,  3-C ) :   0.9003 B(  2-C , 13-F ) :   1.0109
B(  2-C , 14-F ) :   1.0128 B(  3-C ,  4-C ) :   0.9064 B(  3-C , 15-F ) :   0.9988
B(  3-C , 16-F ) :   1.0056 B(  4-C ,  5-C ) :   0.8928 B(  4-C , 17-F ) :   1.0281
B(  4-C , 18-F ) :   1.0283 B(  5-C ,  6-C ) :   0.8903 B(  5-C , 19-F ) :   1.0447
B(  5-C , 20-F ) :   1.0569 B(  6-C ,  7-C ) :   0.9095 B(  6-C , 21-F ) :   1.0461
B(  6-C , 22-F ) :   1.0430 B(  7-C , 23-O ) :   1.6997 B(  7-C , 24-O ) :   1.7019
B( 23-O , 28-H ) :   0.1293 B( 24-O , 27-H ) :   0.1220 B( 25-O , 26-H ) :   0.9002
B( 25-O , 27-H ) :   0.8091 B( 28-H , 29-O ) :   0.8152 B( 29-O , 30-H ) :   0.9001

Dispersion correction           -0.034505195
FINAL SINGLE POINT ENERGY     -2106.888629600957

DIPOLE MOMENT
-------------

Method             : SCF
Type of density    : Electron Density
Multiplicity       :   2
Irrep              :   0
Energy             : -2106.8541244059724704 Eh
Relativity type    :
Basis              : AO
                                X                 Y                 Z
Electronic contribution:      2.867472683      38.228110779       7.322351245
Nuclear contribution   :     -2.780428704     -31.387957808      -6.129409871
                        -----------------------------------------
Total Dipole Moment    :      0.087043979       6.840152971       1.192941373
                        -----------------------------------------
Magnitude (a.u.)       :      6.943945452
Magnitude (Debye)      :     17.650106662

Rotational constants in cm-1:             0.013468             0.002903             0.002698
Rotational constants in MHz :           403.755571            87.039102            80.877136

                             ****ORCA TERMINATED NORMALLY****
TOTAL RUN TIME: 0 days 0 hours 32 minutes 36 seconds 722 msec
