                         Program Version 6.0.1  -  RELEASE   -
|  1> !r2scanh def2-TZVP opt d3 TightSCF SlowConv defgrid2
|  2>
|  3> %pal
|  4> nprocs 20
|  5> end
|  6>
|  7> %scf
|  8> MaxIter 1500
|  9> end
| 10>
| 11> %maxcore 8000 #verificar
| 12>
| 13> !CPCM
| 14> %cpcm smd true
| 15> SMDsolvent "ACETONITRILE"
| 16> end
| 17>
| 18> * xyz -1 2
| 19> 6        4.790427000     -0.033865800     -0.529943200
| 20> 8        5.449345000     -1.206924000     -0.894594600
| 21> 8        4.978223000      1.323071000     -0.737377200
| 22> 6        3.506687600     -0.338741600      0.376153800
| 23> 6        2.222300000      0.400524800     -0.110681600
| 24> 6        0.900506800     -0.386389800      0.175703000
| 25> 6       -0.395261200      0.487294000      0.065549000
| 26> 6       -1.705693600     -0.364773800     -0.068373600
| 27> 6       -3.005136200      0.445344800      0.258164000
| 28> 6       -4.319880200     -0.214526000     -0.270540800
| 29> 9        3.211587400     -1.692050400      0.412735200
| 30> 9        3.741061800      0.055285800      1.689948800
| 31> 9        2.125696800      1.616867800      0.483236600
| 32> 9        0.794028800     -1.413561400     -0.700839000
| 33> 9        0.958350600     -0.884509000      1.435093400
| 34> 9       -0.498373400      1.260265600      1.173340200
| 35> 9       -0.299075000      1.289512600     -1.020910800
| 36> 9       -1.641790400     -1.418189000      0.779523800
| 37> 9       -1.792381400     -0.831391600     -1.336863600
| 38> 9       -2.918792200      1.679227200     -0.295171200
| 39> 9       -3.119771000      0.573779800      1.598579800
| 40> 9       -4.383115600     -1.504377600      0.089127600
| 41> 9       -5.365669800      0.430528600      0.260394200
| 42> 9       -4.396020400     -0.128550600     -1.602941800
| 43> **                         ****END OF INPUT****
 Total Charge           Charge          ....   -1
 Multiplicity           Mult            ....    2
 Number of Electrons    NEL             ....  191
Dispersion correction           -0.007899389
FINAL SINGLE POINT ENERGY     -1853.047604006827
Dispersion correction             ... done (  0.1 sec)
Dispersion correction           -0.007955072
FINAL SINGLE POINT ENERGY     -1853.096108245533
Dispersion correction             ... done (  0.0 sec)
Dispersion correction           -0.007992407
FINAL SINGLE POINT ENERGY     -1853.105638519497
Dispersion correction             ... done (  0.0 sec)
FINAL SINGLE POINT ENERGY     -1853.109719128286
FINAL SINGLE POINT ENERGY     -1853.104272785058
FINAL SINGLE POINT ENERGY     -1853.111298465918
FINAL SINGLE POINT ENERGY     -1853.111861998728
FINAL SINGLE POINT ENERGY     -1853.112259047995
FINAL SINGLE POINT ENERGY     -1853.112594084962
FINAL SINGLE POINT ENERGY     -1853.112994862977
FINAL SINGLE POINT ENERGY     -1853.114367186732
FINAL SINGLE POINT ENERGY     -1853.114383810353
FINAL SINGLE POINT ENERGY     -1853.114379722397
FINAL SINGLE POINT ENERGY     -1853.114486013316
FINAL SINGLE POINT ENERGY     -1853.114506598319
FINAL SINGLE POINT ENERGY     -1853.114508533328
FINAL SINGLE POINT ENERGY     -1853.114509843769
Dispersion correction             ... done (  0.0 sec)
Dispersion correction           -0.008297636
FINAL SINGLE POINT ENERGY     -1853.114512258308
Dispersion correction             ... done (  0.0 sec)
Dispersion correction           -0.008299073
FINAL SINGLE POINT ENERGY     -1853.114513122454
Dispersion correction             ... done (  0.0 sec)
                    ***********************HURRAY********************

CARTESIAN COORDINATES (ANGSTROEM)
---------------------------------
  C      3.557458   -0.179350   -1.195866
  O      4.153255   -1.105152   -1.752155
  O      2.998510    0.834976   -1.643515
  C      3.517599   -0.233063    0.376081
  C      2.243856    0.254267    0.973562
  C      0.957496   -0.476116    0.882434
  C     -0.256662    0.426459    0.513334
  C     -1.503521   -0.371163    0.025688
  C     -2.818262    0.459109    0.100844
  C     -3.967707   -0.107639   -0.776367
  F      3.763170   -1.492102    0.849472
  F      4.529202    0.564325    0.843881
  F      2.177726    1.518310    1.370610
  F      1.066708   -1.454987   -0.047148
  F      0.648722   -1.087411    2.064265
  F     -0.598034    1.148187    1.596686
  F      0.102230    1.265136   -0.467906
  F     -1.664319   -1.471898    0.774705
  F     -1.299378   -0.744773   -1.247932
  F     -2.585075    1.718085   -0.301363
  F     -3.245552    0.479187    1.370263
  F     -4.122310   -1.409138   -0.557593
  F     -5.095235    0.517804   -0.458611
  F     -3.722621    0.090799   -2.064059

 Multiplicity           Mult            ....    2
 Number of Electrons    NEL             ....  191
 Basis Dimension        Dim             ....  744

ORBITAL ENERGIES
----------------
                 SPIN UP ORBITALS
  NO   OCC          E(Eh)            E(eV)
   0   1.0000     -24.731617      -672.9815
   1   1.0000     -24.730403      -672.9485
   2   1.0000     -24.730305      -672.9458
   3   1.0000     -24.729827      -672.9328
   4   1.0000     -24.729072      -672.9123
   5   1.0000     -24.728751      -672.9035
   6   1.0000     -24.728621      -672.9000
   7   1.0000     -24.724927      -672.7995
   8   1.0000     -24.722287      -672.7276
   9   1.0000     -24.719584      -672.6541
  10   1.0000     -24.717181      -672.5887
  11   1.0000     -24.706591      -672.3005
  12   1.0000     -24.683448      -671.6708
  13   1.0000     -24.679021      -671.5503
  14   1.0000     -19.053636      -518.4758
  15   1.0000     -19.050775      -518.3979
  16   1.0000     -10.439050      -284.0610
  17   1.0000     -10.383894      -282.5601
  18   1.0000     -10.383567      -282.5512
  19   1.0000     -10.377612      -282.3892
  20   1.0000     -10.369264      -282.1620
  21   1.0000     -10.319925      -280.8194
  22   1.0000     -10.275895      -279.6213
  23   1.0000     -10.233521      -278.4683
  24   1.0000      -1.360786       -37.0289
  25   1.0000      -1.333282       -36.2805
  26   1.0000      -1.316161       -35.8146
  27   1.0000      -1.310933       -35.6723
  28   1.0000      -1.297388       -35.3037
  29   1.0000      -1.277717       -34.7684
  30   1.0000      -1.271846       -34.6087
  31   1.0000      -1.265989       -34.4493
  32   1.0000      -1.263358       -34.3777
  33   1.0000      -1.260167       -34.2909
  34   1.0000      -1.256270       -34.1849
  35   1.0000      -1.251949       -34.0673
  36   1.0000      -1.237005       -33.6606
  37   1.0000      -1.205328       -32.7987
  38   1.0000      -1.031567       -28.0704
  39   1.0000      -0.947830       -25.7918
  40   1.0000      -0.843908       -22.9639
  41   1.0000      -0.826947       -22.5024
  42   1.0000      -0.792595       -21.5676
  43   1.0000      -0.747979       -20.3536
  44   1.0000      -0.705455       -19.1964
  45   1.0000      -0.677816       -18.4443
  46   1.0000      -0.650896       -17.7118
  47   1.0000      -0.637980       -17.3603
  48   1.0000      -0.633495       -17.2383
  49   1.0000      -0.627466       -17.0742
  50   1.0000      -0.614773       -16.7288
  51   1.0000      -0.609169       -16.5763
  52   1.0000      -0.607911       -16.5421
  53   1.0000      -0.593749       -16.1567
  54   1.0000      -0.590702       -16.0738
  55   1.0000      -0.580339       -15.7918
  56   1.0000      -0.575402       -15.6575
  57   1.0000      -0.568135       -15.4597
  58   1.0000      -0.565241       -15.3810
  59   1.0000      -0.550314       -14.9748
  60   1.0000      -0.534184       -14.5359
  61   1.0000      -0.502020       -13.6606
  62   1.0000      -0.500229       -13.6119
  63   1.0000      -0.497007       -13.5242
  64   1.0000      -0.490731       -13.3535
  65   1.0000      -0.485208       -13.2032
  66   1.0000      -0.484181       -13.1752
  67   1.0000      -0.476858       -12.9760
  68   1.0000      -0.470406       -12.8004
  69   1.0000      -0.468120       -12.7382
  70   1.0000      -0.461621       -12.5614
  71   1.0000      -0.457751       -12.4560
  72   1.0000      -0.453993       -12.3538
  73   1.0000      -0.448656       -12.2085
  74   1.0000      -0.448167       -12.1952
  75   1.0000      -0.439800       -11.9676
  76   1.0000      -0.436902       -11.8887
  77   1.0000      -0.435621       -11.8539
  78   1.0000      -0.430719       -11.7205
  79   1.0000      -0.428076       -11.6486
  80   1.0000      -0.427426       -11.6309
  81   1.0000      -0.425555       -11.5799
  82   1.0000      -0.421264       -11.4632
  83   1.0000      -0.419225       -11.4077
  84   1.0000      -0.415789       -11.3142
  85   1.0000      -0.409214       -11.1353
  86   1.0000      -0.397399       -10.8138
  87   1.0000      -0.391534       -10.6542
  88   1.0000      -0.384523       -10.4634
  89   1.0000      -0.374498       -10.1906
  90   1.0000      -0.362251        -9.8573
  91   1.0000      -0.330565        -8.9951
  92   1.0000      -0.257743        -7.0136
  93   1.0000      -0.243805        -6.6343
  94   1.0000      -0.226785        -6.1711
  95   1.0000      -0.211166        -5.7461
  96   0.0000      -0.012868        -0.3501
  97   0.0000       0.009162         0.2493
  98   0.0000       0.023241         0.6324
  99   0.0000       0.055105         1.4995
 100   0.0000       0.064776         1.7626

                 SPIN DOWN ORBITALS
  NO   OCC          E(Eh)            E(eV)
   0   1.0000     -24.731617      -672.9815
   1   1.0000     -24.730404      -672.9485
   2   1.0000     -24.730305      -672.9458
   3   1.0000     -24.729822      -672.9327
   4   1.0000     -24.729069      -672.9122
   5   1.0000     -24.728747      -672.9034
   6   1.0000     -24.728622      -672.9000
   7   1.0000     -24.724814      -672.7964
   8   1.0000     -24.722275      -672.7273
   9   1.0000     -24.716792      -672.5781
  10   1.0000     -24.714954      -672.5281
  11   1.0000     -24.704752      -672.2505
  12   1.0000     -24.683250      -671.6654
  13   1.0000     -24.678194      -671.5278
  14   1.0000     -19.052273      -518.4387
  15   1.0000     -19.050256      -518.3838
  16   1.0000     -10.439043      -284.0608
  17   1.0000     -10.383852      -282.5590
  18   1.0000     -10.383549      -282.5507
  19   1.0000     -10.377286      -282.3803
  20   1.0000     -10.370056      -282.1836
  21   1.0000     -10.320800      -280.8432
  22   1.0000     -10.259296      -279.1696
  23   1.0000     -10.232890      -278.4511
  24   1.0000      -1.360779       -37.0287
  25   1.0000      -1.333116       -36.2759
  26   1.0000      -1.315905       -35.8076
  27   1.0000      -1.310748       -35.6673
  28   1.0000      -1.295814       -35.2609
  29   1.0000      -1.271837       -34.6084
  30   1.0000      -1.271010       -34.5859
  31   1.0000      -1.265983       -34.4491
  32   1.0000      -1.263291       -34.3759
  33   1.0000      -1.257672       -34.2230
  34   1.0000      -1.256206       -34.1831
  35   1.0000      -1.251806       -34.0634
  36   1.0000      -1.234460       -33.5914
  37   1.0000      -1.204110       -32.7655
  38   1.0000      -1.030011       -28.0280
  39   1.0000      -0.946047       -25.7433
  40   1.0000      -0.841639       -22.9022
  41   1.0000      -0.817229       -22.2379
  42   1.0000      -0.783307       -21.3149
  43   1.0000      -0.744671       -20.2635
  44   1.0000      -0.704238       -19.1633
  45   1.0000      -0.676534       -18.4094
  46   1.0000      -0.645376       -17.5616
  47   1.0000      -0.637195       -17.3390
  48   1.0000      -0.631175       -17.1751
  49   1.0000      -0.627327       -17.0704
  50   1.0000      -0.614400       -16.7187
  51   1.0000      -0.607970       -16.5437
  52   1.0000      -0.605923       -16.4880
  53   1.0000      -0.592894       -16.1335
  54   1.0000      -0.588658       -16.0182
  55   1.0000      -0.578013       -15.7285
  56   1.0000      -0.573467       -15.6048
  57   1.0000      -0.564366       -15.3572
  58   1.0000      -0.562069       -15.2947
  59   1.0000      -0.547771       -14.9056
  60   1.0000      -0.532794       -14.4981
  61   1.0000      -0.501923       -13.6580
  62   1.0000      -0.496971       -13.5233
  63   1.0000      -0.491969       -13.3872
  64   1.0000      -0.487421       -13.2634
  65   1.0000      -0.484575       -13.1860
  66   1.0000      -0.477137       -12.9836
  67   1.0000      -0.470335       -12.7985
  68   1.0000      -0.469905       -12.7868
  69   1.0000      -0.466725       -12.7002
  70   1.0000      -0.458612       -12.4795
  71   1.0000      -0.456159       -12.4127
  72   1.0000      -0.452353       -12.3092
  73   1.0000      -0.448248       -12.1974
  74   1.0000      -0.446642       -12.1538
  75   1.0000      -0.438199       -11.9240
  76   1.0000      -0.436578       -11.8799
  77   1.0000      -0.435423       -11.8485
  78   1.0000      -0.429920       -11.6987
  79   1.0000      -0.427231       -11.6255
  80   1.0000      -0.425500       -11.5784
  81   1.0000      -0.423336       -11.5196
  82   1.0000      -0.419904       -11.4262
  83   1.0000      -0.418146       -11.3783
  84   1.0000      -0.414605       -11.2820
  85   1.0000      -0.407651       -11.0928
  86   1.0000      -0.396494       -10.7892
  87   1.0000      -0.389739       -10.6053
  88   1.0000      -0.382078       -10.3969
  89   1.0000      -0.373585       -10.1658
  90   1.0000      -0.358770        -9.7626
  91   1.0000      -0.327952        -8.9240
  92   1.0000      -0.243635        -6.6296
  93   1.0000      -0.228492        -6.2176
  94   1.0000      -0.224538        -6.1100
  95   0.0000      -0.094095        -2.5605
  96   0.0000      -0.011357        -0.3091
  97   0.0000       0.010859         0.2955
  98   0.0000       0.027001         0.7347
  99   0.0000       0.059114         1.6086

MULLIKEN ATOMIC CHARGES AND SPIN POPULATIONS
--------------------------------------------
   0 C :    0.208561    0.017065
   1 O :   -0.501320    0.038744
   2 O :   -0.519129    0.013558
   3 C :    0.379886   -0.039171
   4 C :    0.077653    0.830888
   5 C :    0.367266   -0.000897
   6 C :    0.320562    0.005673
   7 C :    0.300775    0.001942
   8 C :    0.328546    0.000634
   9 C :    0.470720    0.000224
  10 F :   -0.214251    0.012182
  11 F :   -0.217310    0.003141
  12 F :   -0.174212    0.078376
  13 F :   -0.185402    0.006070
  14 F :   -0.187795    0.028978
  15 F :   -0.172057    0.001698
  16 F :   -0.162397    0.000743
  17 F :   -0.164747   -0.000070
  18 F :   -0.165596    0.000104
  19 F :   -0.163688    0.000005
  20 F :   -0.161236    0.000036
  21 F :   -0.156404   -0.000009
  22 F :   -0.154164    0.000080
  23 F :   -0.154264    0.000007
Sum of atomic charges         :   -1.0000000

LOEWDIN ATOMIC CHARGES AND SPIN POPULATIONS
-------------------------------------------
   0 C :   -0.687438    0.018529
   1 O :   -0.038704    0.035185
   2 O :   -0.050846    0.013333
   3 C :   -0.470971    0.048834
   4 C :   -0.188515    0.644597
   5 C :   -0.475743    0.069488
   6 C :   -0.465797    0.009240
   7 C :   -0.471815    0.002054
   8 C :   -0.478865    0.000685
   9 C :   -0.679657    0.000199
  10 F :    0.154199    0.014610
  11 F :    0.153173    0.003309
  12 F :    0.232034    0.096669
  13 F :    0.216226    0.007859
  14 F :    0.181433    0.032343
  15 F :    0.222412    0.002340
  16 F :    0.235092    0.000405
  17 F :    0.231144    0.000039
  18 F :    0.228721    0.000138
  19 F :    0.229589   -0.000006
  20 F :    0.230520    0.000061
  21 F :    0.230418   -0.000006
  22 F :    0.230764    0.000087
  23 F :    0.232626    0.000007

  Mayer bond orders larger than 0.100000
B(  0-C ,  1-O ) :   1.8361 B(  0-C ,  2-O ) :   1.8100 B(  0-C ,  3-C ) :   0.8624
B(  3-C ,  4-C ) :   0.9927 B(  3-C , 10-F ) :   1.0340 B(  3-C , 11-F ) :   1.0017
B(  4-C ,  5-C ) :   1.0561 B(  4-C , 12-F ) :   1.0715 B(  5-C ,  6-C ) :   0.9133
B(  5-C , 13-F ) :   1.0400 B(  5-C , 14-F ) :   1.0438 B(  6-C ,  7-C ) :   0.9205
B(  6-C , 15-F ) :   1.0644 B(  6-C , 16-F ) :   1.0926 B(  7-C ,  8-C ) :   0.9323
B(  7-C , 17-F ) :   1.0851 B(  7-C , 18-F ) :   1.0902 B(  8-C ,  9-C ) :   0.9539
B(  8-C , 19-F ) :   1.0831 B(  8-C , 20-F ) :   1.0965 B(  9-C , 21-F ) :   1.1291
B(  9-C , 22-F ) :   1.1327 B(  9-C , 23-F ) :   1.1426

Dispersion correction           -0.008299407
FINAL SINGLE POINT ENERGY     -1853.114513581626

DIPOLE MOMENT
-------------

Method             : SCF
Type of density    : Electron Density
Multiplicity       :   2
Irrep              :   0
Energy             : -1853.1062141742643234 Eh
Relativity type    :
Basis              : AO
                                X                 Y                 Z
Electronic contribution:    -14.170906171       0.454161459       4.940033065
Nuclear contribution   :      7.585640122      -0.127228182      -2.606788910
                        -----------------------------------------
Total Dipole Moment    :     -6.585266049       0.326933277       2.333244155
                        -----------------------------------------
Magnitude (a.u.)       :      6.994043365
Magnitude (Debye)      :     17.777445437

Rotational constants in cm-1:             0.018839             0.004455             0.004330
Rotational constants in MHz :           564.790015           133.566575           129.798513

                             ****ORCA TERMINATED NORMALLY****
TOTAL RUN TIME: 0 days 0 hours 38 minutes 10 seconds 341 msec
