                         Program Version 6.0.1  -  RELEASE   -
|  1> !TPSSh def2-TZVP opt d3 TightSCF SlowConv defgrid2
|  2>
|  3> %pal
|  4> nprocs 20
|  5> end
|  6>
|  7> %scf
|  8> MaxIter 1500
|  9> end
| 10>
| 11> %maxcore 8000
| 12>
| 13> !CPCM
| 14> %cpcm smd true
| 15> SMDsolvent "ACETONITRILE"
| 16> end
| 17>
| 18> * xyz -1 2
| 19> 6        4.870906397      0.061888661     -0.237292510
| 20> 8        5.271940174     -0.267476354     -1.399541711
| 21> 8        5.203187478      1.337876105      0.278273556
| 22> 1        5.668158999      1.786076840     -0.446718784
| 23> 6        3.577190606     -0.417061850      0.325730837
| 24> 6        2.245024540      0.218842756     -0.204004451
| 25> 6        0.891320286     -0.467997151      0.173792354
| 26> 6       -0.382269188      0.419918005     -0.023365189
| 27> 6       -1.728626502     -0.380951428     -0.034067234
| 28> 6       -2.989669377      0.508649937      0.220799218
| 29> 6       -4.341700350     -0.148256685     -0.200457220
| 30> 9        3.454956342     -1.770907039      0.081229207
| 31> 9        3.545488518     -0.229037896      1.697273539
| 32> 9        2.190934323      1.506680122      0.238734203
| 33> 9        2.305906375      0.246046282     -1.564120563
| 34> 9        0.746279290     -1.583774915     -0.584187158
| 35> 9        0.928008200     -0.837544543      1.477151553
| 36> 9       -0.436766777      1.327546928      0.978944699
| 37> 9       -0.285373169      1.079994905     -1.200191876
| 38> 9       -1.690728565     -1.332385248      0.925305417
| 39> 9       -1.863434049     -0.985412705     -1.235071462
| 40> 9       -2.875331257      1.665488073     -0.468927793
| 41> 9       -3.065592445      0.790736220      1.537304067
| 42> 9       -4.452300700     -1.378234719      0.311637220
| 43> 9       -5.347318642      0.600905856      0.263788886
| 44> 9       -4.445219507     -0.217868155     -1.529143803
| 45> *
| 46>
| 47>                          ****END OF INPUT****
 Total Charge           Charge          ....   -1
 Multiplicity           Mult            ....    2
 Number of Electrons    NEL             ....  201
Dispersion correction           -0.031085497
FINAL SINGLE POINT ENERGY     -1954.420987570222
Dispersion correction             ... done (  0.0 sec)
Dispersion correction           -0.031039787
FINAL SINGLE POINT ENERGY     -1954.421137977844
Dispersion correction             ... done (  0.0 sec)
Dispersion correction           -0.031008927
FINAL SINGLE POINT ENERGY     -1954.421200201125
Dispersion correction             ... done (  0.0 sec)
FINAL SINGLE POINT ENERGY     -1954.421215234676
FINAL SINGLE POINT ENERGY     -1954.421228339191
Dispersion correction             ... done (  0.0 sec)
Dispersion correction           -0.030984532
FINAL SINGLE POINT ENERGY     -1954.421230888627
Dispersion correction             ... done (  0.0 sec)
Dispersion correction           -0.030982299
FINAL SINGLE POINT ENERGY     -1954.421231752642
Dispersion correction             ... done (  0.0 sec)
                    ***********************HURRAY********************

CARTESIAN COORDINATES (ANGSTROEM)
---------------------------------
  C      4.875657    0.076205   -0.271273
  O      5.265071   -0.207387   -1.438759
  O      5.262338    1.301339    0.324235
  H      5.776423    1.744204   -0.371072
  C      3.593494   -0.413055    0.297990
  C      2.244133    0.219088   -0.202147
  C      0.886399   -0.452572    0.186412
  C     -0.393504    0.423787   -0.021534
  C     -1.739674   -0.378091   -0.028539
  C     -3.006342    0.508771    0.208423
  C     -4.357197   -0.161683   -0.199230
  F      3.464227   -1.768109    0.024066
  F      3.568254   -0.254888    1.676417
  F      2.202429    1.509604    0.245673
  F      2.282993    0.250895   -1.565559
  F      0.741311   -1.584227   -0.551528
  F      0.923612   -0.800870    1.498512
  F     -0.451512    1.344083    0.970581
  F     -0.297462    1.074910   -1.205716
  F     -1.704296   -1.317040    0.945035
  F     -1.866620   -1.002511   -1.221139
  F     -2.896029    1.655381   -0.499780
  F     -3.084133    0.815741    1.519722
  F     -4.463073   -1.383733    0.333885
  F     -5.366244    0.590581    0.254509
  F     -4.465284   -0.256681   -1.526307

 Multiplicity           Mult            ....    2
 Number of Electrons    NEL             ....  201
 Basis Dimension        Dim             ....  781

ORBITAL ENERGIES
----------------
                 SPIN UP ORBITALS
  NO   OCC          E(Eh)            E(eV)
   0   1.0000     -24.659339      -671.0147
   1   1.0000     -24.658416      -670.9896
   2   1.0000     -24.657556      -670.9662
   3   1.0000     -24.656878      -670.9478
   4   1.0000     -24.656006      -670.9240
   5   1.0000     -24.655127      -670.9001
   6   1.0000     -24.654226      -670.8756
   7   1.0000     -24.649926      -670.7586
   8   1.0000     -24.648559      -670.7214
   9   1.0000     -24.641090      -670.5181
  10   1.0000     -24.639007      -670.4615
  11   1.0000     -24.626684      -670.1261
  12   1.0000     -24.624484      -670.0663
  13   1.0000     -24.601589      -669.4433
  14   1.0000     -24.600255      -669.4070
  15   1.0000     -19.043517      -518.2004
  16   1.0000     -18.982348      -516.5360
  17   1.0000     -10.393640      -282.8253
  18   1.0000     -10.340229      -281.3719
  19   1.0000     -10.338543      -281.3261
  20   1.0000     -10.331908      -281.1455
  21   1.0000     -10.320399      -280.8323
  22   1.0000     -10.300331      -280.2863
  23   1.0000     -10.273982      -279.5693
  24   1.0000     -10.167870      -276.6818
  25   1.0000      -1.320092       -35.9215
  26   1.0000      -1.292334       -35.1662
  27   1.0000      -1.277138       -34.7527
  28   1.0000      -1.271029       -34.5865
  29   1.0000      -1.261507       -34.3274
  30   1.0000      -1.244973       -33.8774
  31   1.0000      -1.234706       -33.5981
  32   1.0000      -1.229339       -33.4520
  33   1.0000      -1.226106       -33.3641
  34   1.0000      -1.219361       -33.1805
  35   1.0000      -1.215024       -33.0625
  36   1.0000      -1.212507       -32.9940
  37   1.0000      -1.205523       -32.8040
  38   1.0000      -1.189875       -32.3782
  39   1.0000      -1.162185       -31.6247
  40   1.0000      -1.007660       -27.4198
  41   1.0000      -0.921584       -25.0776
  42   1.0000      -0.817647       -22.2493
  43   1.0000      -0.792272       -21.5588
  44   1.0000      -0.762336       -20.7442
  45   1.0000      -0.729706       -19.8563
  46   1.0000      -0.692072       -18.8322
  47   1.0000      -0.661783       -18.0080
  48   1.0000      -0.640295       -17.4233
  49   1.0000      -0.618034       -16.8175
  50   1.0000      -0.614013       -16.7081
  51   1.0000      -0.607378       -16.5276
  52   1.0000      -0.596100       -16.2207
  53   1.0000      -0.591137       -16.0857
  54   1.0000      -0.589915       -16.0524
  55   1.0000      -0.580601       -15.7990
  56   1.0000      -0.575178       -15.6514
  57   1.0000      -0.566733       -15.4216
  58   1.0000      -0.560737       -15.2584
  59   1.0000      -0.556589       -15.1456
  60   1.0000      -0.549624       -14.9560
  61   1.0000      -0.538635       -14.6570
  62   1.0000      -0.535200       -14.5635
  63   1.0000      -0.511989       -13.9319
  64   1.0000      -0.483133       -13.1467
  65   1.0000      -0.478329       -13.0160
  66   1.0000      -0.473534       -12.8855
  67   1.0000      -0.472525       -12.8581
  68   1.0000      -0.468242       -12.7415
  69   1.0000      -0.466803       -12.7023
  70   1.0000      -0.459124       -12.4934
  71   1.0000      -0.454718       -12.3735
  72   1.0000      -0.451221       -12.2783
  73   1.0000      -0.446082       -12.1385
  74   1.0000      -0.443398       -12.0655
  75   1.0000      -0.439642       -11.9633
  76   1.0000      -0.432433       -11.7671
  77   1.0000      -0.431277       -11.7356
  78   1.0000      -0.426920       -11.6171
  79   1.0000      -0.421012       -11.4563
  80   1.0000      -0.419652       -11.4193
  81   1.0000      -0.418837       -11.3971
  82   1.0000      -0.416661       -11.3379
  83   1.0000      -0.413833       -11.2610
  84   1.0000      -0.411413       -11.1951
  85   1.0000      -0.410475       -11.1696
  86   1.0000      -0.405972       -11.0471
  87   1.0000      -0.401624       -10.9287
  88   1.0000      -0.394932       -10.7466
  89   1.0000      -0.391795       -10.6613
  90   1.0000      -0.387067       -10.5326
  91   1.0000      -0.383198       -10.4273
  92   1.0000      -0.372648       -10.1403
  93   1.0000      -0.367887       -10.0107
  94   1.0000      -0.365630        -9.9493
  95   1.0000      -0.343467        -9.3462
  96   1.0000      -0.329007        -8.9527
  97   1.0000      -0.305950        -8.3253
  98   1.0000      -0.265035        -7.2120
  99   1.0000      -0.218629        -5.9492
 100   1.0000      -0.089336        -2.4309
 101   0.0000      -0.013620        -0.3706
 102   0.0000      -0.000678        -0.0184
 103   0.0000       0.031461         0.8561
 104   0.0000       0.044837         1.2201
 105   0.0000       0.070571         1.9203

                 SPIN DOWN ORBITALS
  NO   OCC          E(Eh)            E(eV)
   0   1.0000     -24.659338      -671.0147
   1   1.0000     -24.658415      -670.9896
   2   1.0000     -24.657525      -670.9654
   3   1.0000     -24.656859      -670.9472
   4   1.0000     -24.656002      -670.9239
   5   1.0000     -24.655117      -670.8998
   6   1.0000     -24.654188      -670.8746
   7   1.0000     -24.649908      -670.7581
   8   1.0000     -24.648498      -670.7197
   9   1.0000     -24.641058      -670.5173
  10   1.0000     -24.638928      -670.4593
  11   1.0000     -24.626630      -670.1247
  12   1.0000     -24.624403      -670.0641
  13   1.0000     -24.601034      -669.4282
  14   1.0000     -24.599701      -669.3919
  15   1.0000     -19.041421      -518.1434
  16   1.0000     -18.975219      -516.3420
  17   1.0000     -10.393595      -282.8241
  18   1.0000     -10.340138      -281.3695
  19   1.0000     -10.338337      -281.3205
  20   1.0000     -10.331520      -281.1350
  21   1.0000     -10.319578      -280.8100
  22   1.0000     -10.298805      -280.2447
  23   1.0000     -10.272956      -279.5413
  24   1.0000     -10.160104      -276.4705
  25   1.0000      -1.320055       -35.9205
  26   1.0000      -1.292183       -35.1621
  27   1.0000      -1.276998       -34.7489
  28   1.0000      -1.270906       -34.5831
  29   1.0000      -1.261252       -34.3204
  30   1.0000      -1.244603       -33.8674
  31   1.0000      -1.234682       -33.5974
  32   1.0000      -1.229299       -33.4509
  33   1.0000      -1.226047       -33.3624
  34   1.0000      -1.219300       -33.1789
  35   1.0000      -1.214871       -33.0583
  36   1.0000      -1.211155       -32.9572
  37   1.0000      -1.205330       -32.7987
  38   1.0000      -1.189660       -32.3723
  39   1.0000      -1.160984       -31.5920
  40   1.0000      -1.001086       -27.2409
  41   1.0000      -0.911473       -24.8024
  42   1.0000      -0.816758       -22.2251
  43   1.0000      -0.790304       -21.5053
  44   1.0000      -0.759333       -20.6625
  45   1.0000      -0.726043       -19.7566
  46   1.0000      -0.689011       -18.7489
  47   1.0000      -0.660205       -17.9651
  48   1.0000      -0.638264       -17.3680
  49   1.0000      -0.617828       -16.8120
  50   1.0000      -0.613540       -16.6953
  51   1.0000      -0.607294       -16.5253
  52   1.0000      -0.594523       -16.1778
  53   1.0000      -0.589828       -16.0500
  54   1.0000      -0.588897       -16.0247
  55   1.0000      -0.577799       -15.7227
  56   1.0000      -0.574847       -15.6424
  57   1.0000      -0.564811       -15.3693
  58   1.0000      -0.560327       -15.2473
  59   1.0000      -0.554302       -15.0833
  60   1.0000      -0.549177       -14.9439
  61   1.0000      -0.537370       -14.6226
  62   1.0000      -0.532004       -14.4766
  63   1.0000      -0.510450       -13.8900
  64   1.0000      -0.483037       -13.1441
  65   1.0000      -0.478255       -13.0140
  66   1.0000      -0.473397       -12.8818
  67   1.0000      -0.470204       -12.7949
  68   1.0000      -0.467906       -12.7324
  69   1.0000      -0.466681       -12.6990
  70   1.0000      -0.458797       -12.4845
  71   1.0000      -0.454403       -12.3649
  72   1.0000      -0.451100       -12.2751
  73   1.0000      -0.445924       -12.1342
  74   1.0000      -0.443015       -12.0550
  75   1.0000      -0.439351       -11.9553
  76   1.0000      -0.432299       -11.7635
  77   1.0000      -0.430887       -11.7250
  78   1.0000      -0.425828       -11.5874
  79   1.0000      -0.420948       -11.4546
  80   1.0000      -0.419212       -11.4073
  81   1.0000      -0.416488       -11.3332
  82   1.0000      -0.413685       -11.2569
  83   1.0000      -0.413092       -11.2408
  84   1.0000      -0.411045       -11.1851
  85   1.0000      -0.410396       -11.1674
  86   1.0000      -0.405667       -11.0387
  87   1.0000      -0.400969       -10.9109
  88   1.0000      -0.394335       -10.7304
  89   1.0000      -0.390121       -10.6157
  90   1.0000      -0.386270       -10.5109
  91   1.0000      -0.379361       -10.3229
  92   1.0000      -0.370759       -10.0889
  93   1.0000      -0.366315        -9.9679
  94   1.0000      -0.349610        -9.5134
  95   1.0000      -0.338667        -9.2156
  96   1.0000      -0.319130        -8.6840
  97   1.0000      -0.303103        -8.2479
  98   1.0000      -0.238883        -6.5003
  99   1.0000      -0.214177        -5.8281
 100   0.0000      -0.026684        -0.7261
 101   0.0000      -0.002052        -0.0558
 102   0.0000       0.007520         0.2046
 103   0.0000       0.035955         0.9784
 104   0.0000       0.050297         1.3687

MULLIKEN ATOMIC CHARGES AND SPIN POPULATIONS
--------------------------------------------
   0 C :   -0.010596    0.501242
   1 O :   -0.538304    0.228903
   2 O :   -0.473957    0.035214
   3 H :    0.315718    0.010837
   4 C :    0.399241    0.036197
   5 C :    0.231668    0.111400
   6 C :    0.283585    0.033941
   7 C :    0.289432    0.022424
   8 C :    0.271643    0.009460
   9 C :    0.293946    0.004465
  10 C :    0.407928    0.001877
  11 F :   -0.215396    0.001766
  12 F :   -0.215078    0.002100
  13 F :   -0.189443   -0.000349
  14 F :   -0.185460    0.000530
  15 F :   -0.169510   -0.000640
  16 F :   -0.167639   -0.000172
  17 F :   -0.158944   -0.000211
  18 F :   -0.158944    0.000502
  19 F :   -0.154303    0.000182
  20 F :   -0.153645   -0.000064
  21 F :   -0.149586    0.000102
  22 F :   -0.146342   -0.000018
  23 F :   -0.136963   -0.000040
  24 F :   -0.134624    0.000370
  25 F :   -0.134427   -0.000020
Sum of atomic charges         :   -1.0000000

LOEWDIN ATOMIC CHARGES AND SPIN POPULATIONS
-------------------------------------------
   0 C :   -0.606138    0.383776
   1 O :   -0.106278    0.219980
   2 O :   -0.031651    0.061039
   3 H :    0.175525    0.009310
   4 C :   -0.487870    0.144577
   5 C :   -0.454971    0.071658
   6 C :   -0.463974    0.042293
   7 C :   -0.460483    0.021037
   8 C :   -0.461052    0.010835
   9 C :   -0.466984    0.004838
  10 C :   -0.667320    0.001716
  11 F :    0.134830    0.010126
  12 F :    0.132042    0.010496
  13 F :    0.182927    0.001028
  14 F :    0.186360    0.001413
  15 F :    0.202504    0.000959
  16 F :    0.202399    0.001456
  17 F :    0.214935    0.000453
  18 F :    0.213878    0.000945
  19 F :    0.219843    0.000639
  20 F :    0.220792    0.000297
  21 F :    0.221215    0.000322
  22 F :    0.223554    0.000125
  23 F :    0.224988    0.000037
  24 F :    0.223897    0.000605
  25 F :    0.227032    0.000041

  Mayer bond orders larger than 0.100000
B(  0-C ,  1-O ) :   1.7942 B(  0-C ,  2-O ) :   1.0759 B(  0-C ,  4-C ) :   0.9956
B(  2-O ,  3-H ) :   0.8627 B(  4-C ,  5-C ) :   0.8385 B(  4-C , 11-F ) :   1.0129
B(  4-C , 12-F ) :   1.0129 B(  5-C ,  6-C ) :   0.9072 B(  5-C , 13-F ) :   1.0533
B(  5-C , 14-F ) :   1.0669 B(  6-C ,  7-C ) :   0.9453 B(  6-C , 15-F ) :   1.0702
B(  6-C , 16-F ) :   1.0822 B(  7-C ,  8-C ) :   0.9425 B(  7-C , 17-F ) :   1.0824
B(  7-C , 18-F ) :   1.0874 B(  8-C ,  9-C ) :   0.9426 B(  8-C , 19-F ) :   1.0918
B(  8-C , 20-F ) :   1.0965 B(  9-C , 10-C ) :   0.9713 B(  9-C , 21-F ) :   1.0983
B(  9-C , 22-F ) :   1.1097 B( 10-C , 23-F ) :   1.1594 B( 10-C , 24-F ) :   1.1601
B( 10-C , 25-F ) :   1.1703

Dispersion correction           -0.030981628
FINAL SINGLE POINT ENERGY     -1954.421231892666

DIPOLE MOMENT
-------------

Method             : SCF
Type of density    : Electron Density
Multiplicity       :   2
Irrep              :   0
Energy             : -1954.3902502644475589 Eh
Relativity type    :
Basis              : AO
                                X                 Y                 Z
Electronic contribution:    -22.750193821      -1.918719776       1.716201536
Nuclear contribution   :     15.608434058       2.562959658      -1.243738163
                        -----------------------------------------
Total Dipole Moment    :     -7.141759762       0.644239882       0.472463373
                        -----------------------------------------
Magnitude (a.u.)       :      7.186306365
Magnitude (Debye)      :     18.266139145

Rotational constants in cm-1:             0.021049             0.003634             0.003595
Rotational constants in MHz :           631.023875           108.940346           107.769103

                             ****ORCA TERMINATED NORMALLY****
TOTAL RUN TIME: 0 days 0 hours 13 minutes 3 seconds 598 msec
