                         Program Version 6.0.1  -  RELEASE   -
|  1> !TPSSh def2-TZVP opt d3 TightSCF SlowConv defgrid2
|  2>
|  3> %pal
|  4> nprocs 20
|  5> end
|  6>
|  7> %scf
|  8> MaxIter 1500
|  9> end
| 10>
| 11> %maxcore 8000
| 12>
| 13> !CPCM
| 14> %cpcm smd true
| 15> SMDsolvent "ACETONITRILE"
| 16> end
| 17>
| 18> * xyz 0 2
| 19> 6        4.790427000     -0.033865800     -0.529943200
| 20> 8        5.449345000     -1.206924000     -0.894594600
| 21> 8        4.978223000      1.323071000     -0.737377200
| 22> 6        3.506687600     -0.338741600      0.376153800
| 23> 6        2.222300000      0.400524800     -0.110681600
| 24> 6        0.900506800     -0.386389800      0.175703000
| 25> 6       -0.395261200      0.487294000      0.065549000
| 26> 6       -1.705693600     -0.364773800     -0.068373600
| 27> 6       -3.005136200      0.445344800      0.258164000
| 28> 6       -4.319880200     -0.214526000     -0.270540800
| 29> 9        3.211587400     -1.692050400      0.412735200
| 30> 9        2.125696800      1.616867800      0.483236600
| 31> 9        2.314152400      0.589704000     -1.455769200
| 32> 9        0.794028800     -1.413561400     -0.700839000
| 33> 9        0.958350600     -0.884509000      1.435093400
| 34> 9       -0.498373400      1.260265600      1.173340200
| 35> 9       -0.299075000      1.289512600     -1.020910800
| 36> 9       -1.641790400     -1.418189000      0.779523800
| 37> 9       -1.792381400     -0.831391600     -1.336863600
| 38> 9       -2.918792200      1.679227200     -0.295171200
| 39> 9       -3.119771000      0.573779800      1.598579800
| 40> 9       -4.383115600     -1.504377600      0.089127600
| 41> 9       -5.365669800      0.430528600      0.260394200
| 42> 9       -4.396020400     -0.128550600     -1.602941800
| 43> 1        5.903122371     -2.014774547     -1.145719253
| 44> *
| 45>
| 46>                          ****END OF INPUT****
 Total Charge           Charge          ....    0
 Multiplicity           Mult            ....    2
 Number of Electrons    NEL             ....  191
Dispersion correction           -0.029575548
FINAL SINGLE POINT ENERGY     -1854.299401621165
Dispersion correction             ... done (  0.0 sec)
Dispersion correction           -0.029687393
FINAL SINGLE POINT ENERGY     -1854.348119110893
Dispersion correction             ... done (  0.1 sec)
Dispersion correction           -0.029742596
FINAL SINGLE POINT ENERGY     -1854.360226974278
Dispersion correction             ... done (  0.0 sec)
FINAL SINGLE POINT ENERGY     -1854.366964738552
FINAL SINGLE POINT ENERGY     -1854.366982404089
FINAL SINGLE POINT ENERGY     -1854.370893430525
FINAL SINGLE POINT ENERGY     -1854.373424543942
FINAL SINGLE POINT ENERGY     -1854.376209801869
FINAL SINGLE POINT ENERGY     -1854.384621511064
FINAL SINGLE POINT ENERGY     -1854.391056875834
FINAL SINGLE POINT ENERGY     -1854.415689113534
FINAL SINGLE POINT ENERGY     -1854.415692474925
FINAL SINGLE POINT ENERGY     -1854.415695348837
FINAL SINGLE POINT ENERGY     -1854.415698637771
FINAL SINGLE POINT ENERGY     -1854.415703647144
FINAL SINGLE POINT ENERGY     -1854.415707829728
FINAL SINGLE POINT ENERGY     -1854.415712339449
Dispersion correction             ... done (  0.0 sec)
Dispersion correction           -0.029643687
FINAL SINGLE POINT ENERGY     -1854.415714488343
Dispersion correction             ... done (  0.0 sec)
Dispersion correction           -0.029644142
FINAL SINGLE POINT ENERGY     -1854.415716036797
Dispersion correction             ... done (  0.0 sec)
                    ***********************HURRAY********************

CARTESIAN COORDINATES (ANGSTROEM)
---------------------------------
  C      4.749773   -0.145042   -0.310655
  O      5.662493   -1.094264   -0.060904
  O      4.991290    1.019830   -0.560579
  C      3.391774   -0.666202   -0.258324
  C      2.170161    0.172723   -0.516052
  C      0.839979   -0.536882   -0.101792
  C     -0.407070    0.415631   -0.063728
  C     -1.769911   -0.359583   -0.106552
  C     -2.986452    0.495052    0.387335
  C     -4.378145   -0.056373   -0.063888
  F      3.201294   -1.967893   -0.118289
  F      2.250840    1.342543    0.168637
  F      2.091464    0.485664   -1.843220
  F      0.598342   -1.541943   -0.972889
  F      0.998798   -1.058645    1.134617
  F     -0.355923    1.143062    1.072895
  F     -0.367880    1.258839   -1.115923
  F     -1.683214   -1.457029    0.675464
  F     -1.999364   -0.754887   -1.376983
  F     -2.877543    1.757225   -0.080813
  F     -2.973457    0.529377    1.734610
  F     -4.473740   -1.365794    0.188282
  F     -5.336367    0.582235    0.614100
  F     -4.571635    0.149906   -1.368096
  H      6.547963   -0.684055   -0.119377

 Multiplicity           Mult            ....    2
 Number of Electrons    NEL             ....  191
 Basis Dimension        Dim             ....  750

ORBITAL ENERGIES
----------------
                 SPIN UP ORBITALS
  NO   OCC          E(Eh)            E(eV)
   0   1.0000     -24.670992      -671.3318
   1   1.0000     -24.662549      -671.1021
   2   1.0000     -24.662462      -671.0997
   3   1.0000     -24.662408      -671.0982
   4   1.0000     -24.661823      -671.0823
   5   1.0000     -24.661336      -671.0691
   6   1.0000     -24.661287      -671.0677
   7   1.0000     -24.661133      -671.0635
   8   1.0000     -24.660829      -671.0553
   9   1.0000     -24.660621      -671.0496
  10   1.0000     -24.660462      -671.0453
  11   1.0000     -24.659465      -671.0182
  12   1.0000     -24.651195      -670.7931
  13   1.0000     -24.648003      -670.7063
  14   1.0000     -19.118890      -520.2515
  15   1.0000     -19.068921      -518.8917
  16   1.0000     -10.397276      -282.9243
  17   1.0000     -10.347619      -281.5730
  18   1.0000     -10.347004      -281.5563
  19   1.0000     -10.345875      -281.5256
  20   1.0000     -10.343842      -281.4703
  21   1.0000     -10.340126      -281.3691
  22   1.0000     -10.270688      -279.4796
  23   1.0000     -10.265002      -279.3249
  24   1.0000      -1.323830       -36.0232
  25   1.0000      -1.304093       -35.4862
  26   1.0000      -1.290011       -35.1030
  27   1.0000      -1.279883       -34.8274
  28   1.0000      -1.279321       -34.8121
  29   1.0000      -1.270336       -34.5676
  30   1.0000      -1.264376       -34.4054
  31   1.0000      -1.239923       -33.7400
  32   1.0000      -1.235025       -33.6067
  33   1.0000      -1.232976       -33.5510
  34   1.0000      -1.228887       -33.4397
  35   1.0000      -1.224236       -33.3132
  36   1.0000      -1.222881       -33.2763
  37   1.0000      -1.213205       -33.0130
  38   1.0000      -1.104932       -30.0667
  39   1.0000      -1.021302       -27.7910
  40   1.0000      -0.830569       -22.6009
  41   1.0000      -0.818075       -22.2609
  42   1.0000      -0.793008       -21.5788
  43   1.0000      -0.756640       -20.5892
  44   1.0000      -0.715596       -19.4724
  45   1.0000      -0.677995       -18.4492
  46   1.0000      -0.658741       -17.9253
  47   1.0000      -0.632633       -17.2148
  48   1.0000      -0.625956       -17.0331
  49   1.0000      -0.620592       -16.8872
  50   1.0000      -0.612587       -16.6693
  51   1.0000      -0.606166       -16.4946
  52   1.0000      -0.603245       -16.4151
  53   1.0000      -0.598395       -16.2832
  54   1.0000      -0.588674       -16.0186
  55   1.0000      -0.582885       -15.8611
  56   1.0000      -0.578830       -15.7508
  57   1.0000      -0.573967       -15.6184
  58   1.0000      -0.565247       -15.3812
  59   1.0000      -0.560960       -15.2645
  60   1.0000      -0.555024       -15.1030
  61   1.0000      -0.535990       -14.5850
  62   1.0000      -0.513579       -13.9752
  63   1.0000      -0.493413       -13.4265
  64   1.0000      -0.488821       -13.3015
  65   1.0000      -0.487277       -13.2595
  66   1.0000      -0.480376       -13.0717
  67   1.0000      -0.478250       -13.0139
  68   1.0000      -0.472653       -12.8615
  69   1.0000      -0.470758       -12.8100
  70   1.0000      -0.468427       -12.7466
  71   1.0000      -0.460819       -12.5395
  72   1.0000      -0.458119       -12.4660
  73   1.0000      -0.455957       -12.4072
  74   1.0000      -0.454419       -12.3654
  75   1.0000      -0.448814       -12.2128
  76   1.0000      -0.447147       -12.1675
  77   1.0000      -0.442463       -12.0400
  78   1.0000      -0.435894       -11.8613
  79   1.0000      -0.431779       -11.7493
  80   1.0000      -0.427854       -11.6425
  81   1.0000      -0.425561       -11.5801
  82   1.0000      -0.423475       -11.5234
  83   1.0000      -0.421289       -11.4639
  84   1.0000      -0.418853       -11.3976
  85   1.0000      -0.417735       -11.3672
  86   1.0000      -0.414004       -11.2656
  87   1.0000      -0.412640       -11.2285
  88   1.0000      -0.412184       -11.2161
  89   1.0000      -0.405891       -11.0448
  90   1.0000      -0.395101       -10.7512
  91   1.0000      -0.365628        -9.9492
  92   1.0000      -0.335580        -9.1316
  93   1.0000      -0.330513        -8.9937
  94   1.0000      -0.293158        -7.9772
  95   1.0000      -0.257783        -7.0146
  96   0.0000      -0.027748        -0.7550
  97   0.0000      -0.018657        -0.5077
  98   0.0000      -0.004087        -0.1112
  99   0.0000       0.023797         0.6476
 100   0.0000       0.034877         0.9491

                 SPIN DOWN ORBITALS
  NO   OCC          E(Eh)            E(eV)
   0   1.0000     -24.666647      -671.2136
   1   1.0000     -24.662549      -671.1021
   2   1.0000     -24.662462      -671.0997
   3   1.0000     -24.662408      -671.0982
   4   1.0000     -24.661823      -671.0823
   5   1.0000     -24.661336      -671.0691
   6   1.0000     -24.661287      -671.0677
   7   1.0000     -24.661130      -671.0635
   8   1.0000     -24.660829      -671.0553
   9   1.0000     -24.660621      -671.0496
  10   1.0000     -24.660418      -671.0441
  11   1.0000     -24.659425      -671.0171
  12   1.0000     -24.650627      -670.7776
  13   1.0000     -24.646653      -670.6695
  14   1.0000     -19.118441      -520.2392
  15   1.0000     -19.064617      -518.7746
  16   1.0000     -10.397276      -282.9243
  17   1.0000     -10.347622      -281.5731
  18   1.0000     -10.347016      -281.5566
  19   1.0000     -10.345875      -281.5256
  20   1.0000     -10.343836      -281.4701
  21   1.0000     -10.340783      -281.3870
  22   1.0000     -10.271863      -279.5116
  23   1.0000     -10.250959      -278.9428
  24   1.0000      -1.323830       -36.0232
  25   1.0000      -1.303971       -35.4829
  26   1.0000      -1.289607       -35.0920
  27   1.0000      -1.279686       -34.8220
  28   1.0000      -1.279140       -34.8072
  29   1.0000      -1.268621       -34.5209
  30   1.0000      -1.256773       -34.1985
  31   1.0000      -1.239911       -33.7397
  32   1.0000      -1.234969       -33.6052
  33   1.0000      -1.232974       -33.5509
  34   1.0000      -1.228791       -33.4371
  35   1.0000      -1.224186       -33.3118
  36   1.0000      -1.222848       -33.2754
  37   1.0000      -1.211197       -32.9584
  38   1.0000      -1.102663       -30.0050
  39   1.0000      -1.015750       -27.6400
  40   1.0000      -0.828919       -22.5560
  41   1.0000      -0.812270       -22.1030
  42   1.0000      -0.785982       -21.3877
  43   1.0000      -0.750206       -20.4142
  44   1.0000      -0.712904       -19.3991
  45   1.0000      -0.677317       -18.4307
  46   1.0000      -0.658489       -17.9184
  47   1.0000      -0.630220       -17.1492
  48   1.0000      -0.625761       -17.0278
  49   1.0000      -0.619416       -16.8552
  50   1.0000      -0.612511       -16.6673
  51   1.0000      -0.605658       -16.4808
  52   1.0000      -0.602428       -16.3929
  53   1.0000      -0.597482       -16.2583
  54   1.0000      -0.587560       -15.9883
  55   1.0000      -0.582007       -15.8372
  56   1.0000      -0.578143       -15.7321
  57   1.0000      -0.572094       -15.5675
  58   1.0000      -0.563020       -15.3206
  59   1.0000      -0.558876       -15.2078
  60   1.0000      -0.553382       -15.0583
  61   1.0000      -0.533470       -14.5165
  62   1.0000      -0.491733       -13.3807
  63   1.0000      -0.487845       -13.2749
  64   1.0000      -0.487204       -13.2575
  65   1.0000      -0.485885       -13.2216
  66   1.0000      -0.479673       -13.0526
  67   1.0000      -0.477368       -12.9898
  68   1.0000      -0.472422       -12.8552
  69   1.0000      -0.470594       -12.8055
  70   1.0000      -0.467171       -12.7124
  71   1.0000      -0.460438       -12.5292
  72   1.0000      -0.457621       -12.4525
  73   1.0000      -0.454501       -12.3676
  74   1.0000      -0.452762       -12.3203
  75   1.0000      -0.446575       -12.1519
  76   1.0000      -0.444343       -12.0912
  77   1.0000      -0.437135       -11.8950
  78   1.0000      -0.435889       -11.8611
  79   1.0000      -0.430330       -11.7099
  80   1.0000      -0.427619       -11.6361
  81   1.0000      -0.425503       -11.5785
  82   1.0000      -0.423365       -11.5204
  83   1.0000      -0.420876       -11.4526
  84   1.0000      -0.418658       -11.3923
  85   1.0000      -0.415301       -11.3009
  86   1.0000      -0.413771       -11.2593
  87   1.0000      -0.411639       -11.2013
  88   1.0000      -0.411331       -11.1929
  89   1.0000      -0.403591       -10.9823
  90   1.0000      -0.394127       -10.7247
  91   1.0000      -0.364521        -9.9191
  92   1.0000      -0.329657        -8.9704
  93   1.0000      -0.321696        -8.7538
  94   1.0000      -0.288936        -7.8623
  95   0.0000      -0.151269        -4.1163
  96   0.0000      -0.026238        -0.7140
  97   0.0000      -0.012205        -0.3321
  98   0.0000       0.005555         0.1512
  99   0.0000       0.027455         0.7471

MULLIKEN ATOMIC CHARGES AND SPIN POPULATIONS
--------------------------------------------
   0 C :    0.237536   -0.047692
   1 O :   -0.365581    0.017719
   2 O :   -0.322944    0.153620
   3 C :    0.180155    0.770791
   4 C :    0.347835   -0.006061
   5 C :    0.291878   -0.008424
   6 C :    0.299260   -0.000062
   7 C :    0.273608   -0.000149
   8 C :    0.295684   -0.000018
   9 C :    0.408550   -0.000010
  10 F :   -0.123326    0.085381
  11 F :   -0.153802    0.009686
  12 F :   -0.162042    0.025765
  13 F :   -0.151685    0.000914
  14 F :   -0.150586    0.000667
  15 F :   -0.147396   -0.000003
  16 F :   -0.146434    0.000006
  17 F :   -0.147999    0.000007
  18 F :   -0.147692   -0.000000
  19 F :   -0.146193   -0.000001
  20 F :   -0.143499    0.000000
  21 F :   -0.135367    0.000000
  22 F :   -0.132135   -0.000003
  23 F :   -0.133113   -0.000000
  24 H :    0.375288   -0.002131
Sum of atomic charges         :    0.0000000

LOEWDIN ATOMIC CHARGES AND SPIN POPULATIONS
-------------------------------------------
   0 C :   -0.519439    0.058865
   1 O :    0.128786    0.015103
   2 O :    0.106415    0.131529
   3 C :   -0.150222    0.594928
   4 C :   -0.461804    0.050152
   5 C :   -0.452609    0.000021
   6 C :   -0.458769   -0.000275
   7 C :   -0.460095   -0.000077
   8 C :   -0.465929   -0.000022
   9 C :   -0.668362   -0.000007
  10 F :    0.265861    0.106546
  11 F :    0.216018    0.012763
  12 F :    0.198229    0.029021
  13 F :    0.224721    0.001083
  14 F :    0.225625    0.001009
  15 F :    0.226689    0.000008
  16 F :    0.228614    0.000075
  17 F :    0.227591    0.000013
  18 F :    0.227338    0.000007
  19 F :    0.225380    0.000003
  20 F :    0.226982   -0.000000
  21 F :    0.226982    0.000001
  22 F :    0.227725   -0.000003
  23 F :    0.228516    0.000000
  24 H :    0.225760   -0.000742

  Mayer bond orders larger than 0.100000
B(  0-C ,  1-O ) :   1.2857 B(  0-C ,  2-O ) :   1.9698 B(  0-C ,  3-C ) :   1.1300
B(  1-O , 24-H ) :   0.8275 B(  3-C ,  4-C ) :   1.0307 B(  3-C , 10-F ) :   1.1272
B(  4-C ,  5-C ) :   0.9598 B(  4-C , 11-F ) :   1.0694 B(  4-C , 12-F ) :   1.0681
B(  5-C ,  6-C ) :   0.9619 B(  5-C , 13-F ) :   1.0826 B(  5-C , 14-F ) :   1.0963
B(  6-C ,  7-C ) :   0.9472 B(  6-C , 15-F ) :   1.1018 B(  6-C , 16-F ) :   1.1010
B(  7-C ,  8-C ) :   0.9423 B(  7-C , 17-F ) :   1.0964 B(  7-C , 18-F ) :   1.1015
B(  8-C ,  9-C ) :   0.9711 B(  8-C , 19-F ) :   1.1014 B(  8-C , 20-F ) :   1.1137
B(  9-C , 21-F ) :   1.1589 B(  9-C , 22-F ) :   1.1636 B(  9-C , 23-F ) :   1.1706

Dispersion correction           -0.029643895
FINAL SINGLE POINT ENERGY     -1854.415716858437

DIPOLE MOMENT
-------------

Method             : SCF
Type of density    : Electron Density
Multiplicity       :   2
Irrep              :   0
Energy             : -1854.3860729632128823 Eh
Relativity type    :
Basis              : AO
                                X                 Y                 Z
Electronic contribution:    -16.787534470      -0.102366412       0.549392986
Nuclear contribution   :     17.681351840      -0.634969054      -0.354424414
                        -----------------------------------------
Total Dipole Moment    :      0.893817370      -0.737335466       0.194968572
                        -----------------------------------------
Magnitude (a.u.)       :      1.174983330
Magnitude (Debye)      :      2.986570277

Rotational constants in cm-1:             0.023174             0.003944             0.003820
Rotational constants in MHz :           694.734239           118.252699           114.534141

                             ****ORCA TERMINATED NORMALLY****
TOTAL RUN TIME: 0 days 1 hours 2 minutes 55 seconds 297 msec
