                         Program Version 6.0.1  -  RELEASE   -
|  1> !TPSSh def2-TZVP freq d3 TightSCF SlowConv defgrid2
|  2>
|  3> %pal
|  4> nprocs 20
|  5> end
|  6>
|  7> %scf
|  8> MaxIter 1500
|  9> end
| 10>
| 11> %maxcore 8000
| 12>
| 13> !CPCM
| 14> %cpcm smd true
| 15> SMDsolvent "ACETONITRILE"
| 16> end
| 17>
| 18> * xyz -1 1
| 19> 6        7.532603000     27.489455000      3.052301000
| 20> 6        6.642527000     26.278979000      2.624243000
| 21> 6        7.447820000     25.041555000      2.102473000
| 22> 6        6.616000000     23.712985000      2.103896000
| 23> 6        7.227649000     22.593686000      1.193221000
| 24> 6        6.686639000     21.159845000      1.510636000
| 25> 6        6.920042000     20.103543000      0.392428000
| 26> 6        6.752421000     18.629512000      0.924047000
| 27> 9        8.413523000     27.790108000      2.092045000
| 28> 9        8.192613000     27.222714000      4.180838000
| 29> 9        6.747249000     28.550582000      3.261013000
| 30> 9        5.900593000     25.920561000      3.694438000
| 31> 9        5.817295000     26.703337000      1.646372000
| 32> 9        7.858787000     25.309328000      0.844092000
| 33> 9        8.536955000     24.868043000      2.881348000
| 34> 9        6.548344000     23.260823000      3.374406000
| 35> 9        5.364515000     23.984207000      1.673321000
| 36> 9        6.950657000     22.901065000     -0.092898000
| 37> 9        8.570594000     22.595164000      1.357410000
| 38> 9        7.297928000     20.730575000      2.642893000
| 39> 9        5.357218000     21.246179000      1.758984000
| 40> 9        6.041471000     20.358586000     -0.618160000
| 41> 9        8.172752000     20.307113000     -0.115771000
| 42> 8        7.807800000     18.048051000      1.233451000
| 43> 8        5.574153000     18.231462000      0.982291000
| 44> 8        3.080653000     19.066976000      0.097957000
| 45> 1        2.641486000     18.208749000      0.032068000
| 46> 1        3.997236000     18.848301000      0.378512000
| 47> 1        9.407189000     18.757821000      1.610212000
| 48> 8       10.295669000     19.083049000      1.881903000
| 49> 1       10.303834000     20.008488000      1.604251000
| 50> *
| 51>
| 52>                          ****END OF INPUT****

CARTESIAN COORDINATES (ANGSTROEM)
---------------------------------
  C      7.532603   27.489455    3.052301
  C      6.642527   26.278979    2.624243
  C      7.447820   25.041555    2.102473
  C      6.616000   23.712985    2.103896
  C      7.227649   22.593686    1.193221
  C      6.686639   21.159845    1.510636
  C      6.920042   20.103543    0.392428
  C      6.752421   18.629512    0.924047
  F      8.413523   27.790108    2.092045
  F      8.192613   27.222714    4.180838
  F      6.747249   28.550582    3.261013
  F      5.900593   25.920561    3.694438
  F      5.817295   26.703337    1.646372
  F      7.858787   25.309328    0.844092
  F      8.536955   24.868043    2.881348
  F      6.548344   23.260823    3.374406
  F      5.364515   23.984207    1.673321
  F      6.950657   22.901065   -0.092898
  F      8.570594   22.595164    1.357410
  F      7.297928   20.730575    2.642893
  F      5.357218   21.246179    1.758984
  F      6.041471   20.358586   -0.618160
  F      8.172752   20.307113   -0.115771
  O      7.807800   18.048051    1.233451
  O      5.574153   18.231462    0.982291
  O      3.080653   19.066976    0.097957
  H      2.641486   18.208749    0.032068
  H      3.997236   18.848301    0.378512
  H      9.407189   18.757821    1.610212
  O     10.295669   19.083049    1.881903
  H     10.303834   20.008488    1.604251

 Total Charge           Charge          ....   -1
 Multiplicity           Mult            ....    1
 Number of Electrons    NEL             ....  220
 Basis Dimension        Dim             ....  861

ORBITAL ENERGIES
----------------

  NO   OCC          E(Eh)            E(eV)
   0   2.0000     -24.660750      -671.0531
   1   2.0000     -24.659776      -671.0266
   2   2.0000     -24.659749      -671.0259
   3   2.0000     -24.659590      -671.0216
   4   2.0000     -24.659525      -671.0198
   5   2.0000     -24.659139      -671.0093
   6   2.0000     -24.658517      -670.9924
   7   2.0000     -24.657598      -670.9674
   8   2.0000     -24.657348      -670.9605
   9   2.0000     -24.653332      -670.8513
  10   2.0000     -24.652831      -670.8376
  11   2.0000     -24.644755      -670.6179
  12   2.0000     -24.643710      -670.5894
  13   2.0000     -24.623980      -670.0526
  14   2.0000     -24.622534      -670.0132
  15   2.0000     -19.015109      -517.4274
  16   2.0000     -19.014854      -517.4205
  17   2.0000     -19.011532      -517.3301
  18   2.0000     -19.011144      -517.3195
  19   2.0000     -10.395447      -282.8745
  20   2.0000     -10.344576      -281.4902
  21   2.0000     -10.343535      -281.4619
  22   2.0000     -10.341921      -281.4180
  23   2.0000     -10.336418      -281.2682
  24   2.0000     -10.323605      -280.9196
  25   2.0000     -10.292237      -280.0660
  26   2.0000     -10.211438      -277.8674
  27   2.0000      -1.322005       -35.9736
  28   2.0000      -1.300024       -35.3754
  29   2.0000      -1.285793       -34.9882
  30   2.0000      -1.277180       -34.7538
  31   2.0000      -1.274527       -34.6816
  32   2.0000      -1.265671       -34.4407
  33   2.0000      -1.242326       -33.8054
  34   2.0000      -1.237549       -33.6754
  35   2.0000      -1.231676       -33.5156
  36   2.0000      -1.230971       -33.4964
  37   2.0000      -1.225023       -33.3346
  38   2.0000      -1.221334       -33.2342
  39   2.0000      -1.218566       -33.1589
  40   2.0000      -1.209367       -32.9085
  41   2.0000      -1.186007       -32.2729
  42   2.0000      -1.020773       -27.7766
  43   2.0000      -0.951798       -25.8997
  44   2.0000      -0.949080       -25.8258
  45   2.0000      -0.935635       -25.4599
  46   2.0000      -0.824365       -22.4321
  47   2.0000      -0.803672       -21.8690
  48   2.0000      -0.775025       -21.0895
  49   2.0000      -0.737570       -20.0703
  50   2.0000      -0.694610       -18.9013
  51   2.0000      -0.663796       -18.0628
  52   2.0000      -0.647430       -17.6175
  53   2.0000      -0.623308       -16.9611
  54   2.0000      -0.618730       -16.8365
  55   2.0000      -0.610412       -16.6101
  56   2.0000      -0.603338       -16.4177
  57   2.0000      -0.599089       -16.3020
  58   2.0000      -0.597921       -16.2703
  59   2.0000      -0.585323       -15.9274
  60   2.0000      -0.582093       -15.8395
  61   2.0000      -0.577635       -15.7183
  62   2.0000      -0.570238       -15.5170
  63   2.0000      -0.559854       -15.2344
  64   2.0000      -0.558029       -15.1847
  65   2.0000      -0.553089       -15.0503
  66   2.0000      -0.547873       -14.9084
  67   2.0000      -0.530774       -14.4431
  68   2.0000      -0.491681       -13.3793
  69   2.0000      -0.486766       -13.2456
  70   2.0000      -0.483600       -13.1594
  71   2.0000      -0.478254       -13.0139
  72   2.0000      -0.475559       -12.9406
  73   2.0000      -0.474498       -12.9117
  74   2.0000      -0.470421       -12.8008
  75   2.0000      -0.467443       -12.7198
  76   2.0000      -0.464369       -12.6361
  77   2.0000      -0.457774       -12.4567
  78   2.0000      -0.454273       -12.3614
  79   2.0000      -0.452096       -12.3022
  80   2.0000      -0.449560       -12.2331
  81   2.0000      -0.443972       -12.0811
  82   2.0000      -0.442386       -12.0379
  83   2.0000      -0.439120       -11.9491
  84   2.0000      -0.433980       -11.8092
  85   2.0000      -0.432616       -11.7721
  86   2.0000      -0.424355       -11.5473
  87   2.0000      -0.423221       -11.5164
  88   2.0000      -0.420806       -11.4507
  89   2.0000      -0.417644       -11.3647
  90   2.0000      -0.416388       -11.3305
  91   2.0000      -0.414177       -11.2703
  92   2.0000      -0.411985       -11.2107
  93   2.0000      -0.410382       -11.1671
  94   2.0000      -0.408473       -11.1151
  95   2.0000      -0.404481       -11.0065
  96   2.0000      -0.399301       -10.8655
  97   2.0000      -0.396645       -10.7933
  98   2.0000      -0.390474       -10.6253
  99   2.0000      -0.382854       -10.4180
 100   2.0000      -0.380461       -10.3529
 101   2.0000      -0.353196        -9.6109
 102   2.0000      -0.337273        -9.1777
 103   2.0000      -0.334104        -9.0914
 104   2.0000      -0.322265        -8.7693
 105   2.0000      -0.263809        -7.1786
 106   2.0000      -0.260847        -7.0980
 107   2.0000      -0.251351        -6.8396
 108   2.0000      -0.239738        -6.5236
 109   2.0000      -0.238870        -6.5000
 110   0.0000      -0.025896        -0.7047
 111   0.0000      -0.009149        -0.2489
 112   0.0000       0.006940         0.1889
 113   0.0000       0.028445         0.7740
 114   0.0000       0.042630         1.1600

MULLIKEN ATOMIC CHARGES
-----------------------
   0 C :    0.408492
   1 C :    0.296339
   2 C :    0.272589
   3 C :    0.294570
   4 C :    0.294952
   5 C :    0.264537
   6 C :    0.291448
   7 C :    0.286494
   8 F :   -0.136035
   9 F :   -0.132996
  10 F :   -0.132660
  11 F :   -0.146770
  12 F :   -0.143728
  13 F :   -0.148918
  14 F :   -0.148529
  15 F :   -0.149131
  16 F :   -0.149886
  17 F :   -0.152824
  18 F :   -0.156261
  19 F :   -0.165814
  20 F :   -0.164273
  21 F :   -0.188027
  22 F :   -0.190979
  23 O :   -0.494698
  24 O :   -0.505958
  25 O :   -0.736246
  26 H :    0.333062
  27 H :    0.352430
  28 H :    0.346162
  29 O :   -0.730709
  30 H :    0.333366
Sum of atomic charges:   -1.0000000

LOEWDIN ATOMIC CHARGES
----------------------
   0 C :   -0.668270
   1 C :   -0.466388
   2 C :   -0.460354
   3 C :   -0.459412
   4 C :   -0.458327
   5 C :   -0.458679
   6 C :   -0.445025
   7 C :   -0.645250
   8 F :    0.226222
   9 F :    0.228816
  10 F :    0.227147
  11 F :    0.225192
  12 F :    0.226472
  13 F :    0.226580
  14 F :    0.226686
  15 F :    0.226352
  16 F :    0.225135
  17 F :    0.222262
  18 F :    0.220155
  19 F :    0.212070
  20 F :    0.213755
  21 F :    0.177427
  22 F :    0.174474
  23 O :   -0.021669
  24 O :   -0.025804
  25 O :   -0.369904
  26 H :    0.156837
  27 H :    0.140248
  28 H :    0.137495
  29 O :   -0.365655
  30 H :    0.151413

  Mayer bond orders larger than 0.100000
B(  0-C ,  1-C ) :   0.9711 B(  0-C ,  8-F ) :   1.1585 B(  0-C ,  9-F ) :   1.1712
B(  0-C , 10-F ) :   1.1630 B(  1-C ,  2-C ) :   0.9437 B(  1-C , 11-F ) :   1.1005
B(  1-C , 12-F ) :   1.1129 B(  2-C ,  3-C ) :   0.9484 B(  2-C , 13-F ) :   1.0968
B(  2-C , 14-F ) :   1.1022 B(  3-C ,  4-C ) :   0.9552 B(  3-C , 15-F ) :   1.0942
B(  3-C , 16-F ) :   1.0935 B(  4-C ,  5-C ) :   0.9446 B(  4-C , 17-F ) :   1.0955
B(  4-C , 18-F ) :   1.0832 B(  5-C ,  6-C ) :   0.9270 B(  5-C , 19-F ) :   1.0798
B(  5-C , 20-F ) :   1.0888 B(  6-C ,  7-C ) :   0.8966 B(  6-C , 21-F ) :   1.0641
B(  6-C , 22-F ) :   1.0522 B(  7-C , 23-O ) :   1.7240 B(  7-C , 24-O ) :   1.7130
B( 23-O , 28-H ) :   0.1160 B( 24-O , 27-H ) :   0.1079 B( 25-O , 26-H ) :   0.8978
B( 25-O , 27-H ) :   0.8189 B( 28-H , 29-O ) :   0.8247 B( 29-O , 30-H ) :   0.8981

Dispersion correction           -0.035640015
FINAL SINGLE POINT ENERGY     -2106.841960012590

DIPOLE MOMENT
-------------

Method             : SCF
Type of density    : Electron Density
Multiplicity       :   1
Irrep              :   0
Energy             : -2106.8063199977855220 Eh
Relativity type    :
Basis              : AO
                                X                 Y                 Z
Electronic contribution:      2.660137695      38.087229530       6.575854809
Nuclear contribution   :     -2.482290503     -30.215527365      -5.482800724
                        -----------------------------------------
Total Dipole Moment    :      0.177847191       7.871702165       1.093054086
                        -----------------------------------------
Magnitude (a.u.)       :      7.949219573
Magnitude (Debye)      :     20.205310413

VIBRATIONAL FREQUENCIES
-----------------------

Scaling factor for frequencies =  1.000000000  (already applied!)

     0:       0.00 cm**-1
     1:       0.00 cm**-1
     2:       0.00 cm**-1
     3:       0.00 cm**-1
     4:       0.00 cm**-1
     5:       0.00 cm**-1
     6:      18.00 cm**-1
     7:      22.32 cm**-1
     8:      28.21 cm**-1
     9:      36.53 cm**-1
    10:      39.34 cm**-1
    11:      45.07 cm**-1
    12:      50.28 cm**-1
    13:      58.11 cm**-1
    14:      61.79 cm**-1
    15:      66.74 cm**-1
    16:      71.64 cm**-1
    17:      75.07 cm**-1
    18:      88.87 cm**-1
    19:     114.52 cm**-1
    20:     118.57 cm**-1
    21:     130.63 cm**-1
    22:     151.92 cm**-1
    23:     163.00 cm**-1
    24:     182.12 cm**-1
    25:     189.38 cm**-1
    26:     196.68 cm**-1
    27:     200.06 cm**-1
    28:     206.18 cm**-1
    29:     225.84 cm**-1
    30:     234.67 cm**-1
    31:     246.04 cm**-1
    32:     247.99 cm**-1
    33:     265.29 cm**-1
    34:     278.03 cm**-1
    35:     296.48 cm**-1
    36:     305.14 cm**-1
    37:     327.19 cm**-1
    38:     341.23 cm**-1
    39:     352.60 cm**-1
    40:     355.97 cm**-1
    41:     363.51 cm**-1
    42:     364.83 cm**-1
    43:     371.13 cm**-1
    44:     397.66 cm**-1
    45:     411.25 cm**-1
    46:     442.12 cm**-1
    47:     462.03 cm**-1
    48:     507.54 cm**-1
    49:     514.35 cm**-1
    50:     533.55 cm**-1
    51:     546.00 cm**-1
    52:     552.87 cm**-1
    53:     569.40 cm**-1
    54:     587.56 cm**-1
    55:     598.52 cm**-1
    56:     626.62 cm**-1
    57:     651.88 cm**-1
    58:     664.20 cm**-1
    59:     670.80 cm**-1
    60:     684.63 cm**-1
    61:     712.84 cm**-1
    62:     717.35 cm**-1
    63:     759.31 cm**-1
    64:     796.54 cm**-1
    65:     866.81 cm**-1
    66:     991.83 cm**-1
    67:    1079.72 cm**-1
    68:    1102.38 cm**-1
    69:    1106.90 cm**-1
    70:    1112.77 cm**-1
    71:    1121.55 cm**-1
    72:    1128.92 cm**-1
    73:    1138.98 cm**-1
    74:    1140.55 cm**-1
    75:    1147.98 cm**-1
    76:    1154.45 cm**-1
    77:    1159.96 cm**-1
    78:    1174.30 cm**-1
    79:    1184.04 cm**-1
    80:    1211.02 cm**-1
    81:    1239.55 cm**-1
    82:    1261.55 cm**-1
    83:    1279.34 cm**-1
    84:    1332.52 cm**-1
    85:    1379.10 cm**-1
    86:    1662.70 cm**-1
    87:    1670.37 cm**-1
    88:    1705.79 cm**-1
    89:    3418.26 cm**-1
    90:    3448.88 cm**-1
    91:    3789.91 cm**-1
    92:    3793.20 cm**-1

IR SPECTRUM
-----------

 Mode   freq       eps      Int      T**2         TX        TY        TZ
       cm**-1   L/(mol*cm) km/mol    a.u.
----------------------------------------------------------------------------
  6:     18.00   0.000496    2.51  0.008598  ( 0.004100  0.017239  0.091016)
  7:     22.32   0.000044    0.22  0.000612  ( 0.010954  0.011636  0.018881)
  8:     28.21   0.000498    2.52  0.005507  ( 0.000593 -0.021991 -0.070871)
  9:     36.53   0.000142    0.72  0.001217  (-0.019650 -0.024427  0.015288)
 10:     39.34   0.000121    0.61  0.000959  (-0.030488 -0.004072  0.003534)
 11:     45.07   0.000427    2.16  0.002956  ( 0.042636  0.003340  0.033579)
 12:     50.28   0.000693    3.50  0.004299  (-0.042721 -0.045777 -0.019449)
 13:     58.11   0.000760    3.84  0.004081  ( 0.002369  0.028323  0.057209)
 14:     61.79   0.000348    1.76  0.001759  ( 0.017728 -0.017327 -0.033837)
 15:     66.74   0.001881    9.51  0.008795  ( 0.028343 -0.014898 -0.088144)
 16:     71.64   0.000392    1.98  0.001705  ( 0.022658 -0.015899 -0.030648)
 17:     75.07   0.029766  150.42  0.123731  ( 0.090959 -0.028797 -0.338567)
 18:     88.87   0.000495    2.50  0.001739  (-0.023323  0.034209  0.004939)
 19:    114.52   0.003834   19.37  0.010447  (-0.038814  0.020691  0.092264)
 20:    118.57   0.024401  123.31  0.064220  ( 0.086893 -0.071916 -0.226931)
 21:    130.63   0.000384    1.94  0.000918  ( 0.021253 -0.019511 -0.009268)
 22:    151.92   0.000318    1.61  0.000654  ( 0.013348 -0.008960 -0.019890)
 23:    163.00   0.000306    1.55  0.000586  ( 0.022984 -0.005360 -0.005380)
 24:    182.12   0.001663    8.40  0.002849  ( 0.003191 -0.018696  0.049897)
 25:    189.38   0.006455   32.62  0.010637  ( 0.093948 -0.001439  0.042524)
 26:    196.68   0.000522    2.64  0.000829  ( 0.027082  0.003114  0.009260)
 27:    200.06   0.000401    2.02  0.000625  ( 0.021619  0.000937  0.012511)
 28:    206.18   0.002503   12.65  0.003788  ( 0.061175  0.005011 -0.004554)
 29:    225.84   0.000738    3.73  0.001019  ( 0.029334  0.000371  0.012590)
 30:    234.67   0.000022    0.11  0.000029  (-0.002379  0.000992 -0.004773)
 31:    246.04   0.000365    1.84  0.000462  ( 0.021357 -0.001706  0.001845)
 32:    247.99   0.000156    0.79  0.000196  ( 0.010499 -0.009166  0.001301)
 33:    265.29   0.004202   21.24  0.004943  ( 0.068050 -0.000900  0.017651)
 34:    278.03   0.001434    7.25  0.001610  ( 0.010348 -0.036603 -0.012765)
 35:    296.48   0.000051    0.26  0.000053  (-0.000857  0.005982 -0.004096)
 36:    305.14   0.000171    0.86  0.000174  (-0.007219  0.009235  0.006084)
 37:    327.19   0.000183    0.92  0.000174  ( 0.005563  0.010348  0.006025)
 38:    341.23   0.000860    4.35  0.000787  ( 0.017443  0.015660  0.015402)
 39:    352.60   0.000099    0.50  0.000088  (-0.003793  0.001606 -0.008414)
 40:    355.97   0.000449    2.27  0.000393  (-0.011291 -0.016070 -0.002772)
 41:    363.51   0.002770   14.00  0.002378  (-0.030162 -0.036977 -0.010037)
 42:    364.83   0.003075   15.54  0.002630  (-0.038283 -0.031291 -0.013613)
 43:    371.13   0.000062    0.31  0.000052  ( 0.001859 -0.005928 -0.003653)
 44:    397.66   0.003002   15.17  0.002355  (-0.044070 -0.002024 -0.020229)
 45:    411.25   0.013760   69.54  0.010442  ( 0.096368  0.028484  0.018534)
 46:    442.12   0.016609   83.93  0.011723  (-0.086006 -0.065756 -0.001516)
 47:    462.03   0.002138   10.80  0.001444  ( 0.014994  0.029253 -0.019064)
 48:    507.54   0.010943   55.30  0.006728  (-0.007361  0.075353  0.031562)
 49:    514.35   0.007360   37.19  0.004465  ( 0.019685 -0.057636 -0.027496)
 50:    533.55   0.015666   79.17  0.009163  (-0.010391 -0.075544 -0.057862)
 51:    546.00   0.010503   53.08  0.006003  ( 0.044183  0.061158 -0.017616)
 52:    552.87   0.000524    2.65  0.000296  (-0.009291 -0.008929 -0.011396)
 53:    569.40   0.002048   10.35  0.001122  ( 0.010223 -0.031765  0.002968)
 54:    587.56   0.002463   12.45  0.001308  ( 0.008872  0.032729  0.012580)
 55:    598.52   0.001158    5.85  0.000604  (-0.009534  0.019374  0.011727)
 56:    626.62   0.020620  104.20  0.010269  ( 0.014510  0.096029  0.028927)
 57:    651.88   0.017294   87.40  0.008279  (-0.004124  0.087955  0.022928)
 58:    664.20   0.023067  116.57  0.010838  ( 0.033726  0.002694 -0.098453)
 59:    670.80   0.003866   19.54  0.001798  ( 0.008233  0.038880  0.014797)
 60:    684.63   0.024888  125.77  0.011344  (-0.047766  0.028790  0.090740)
 61:    712.84   0.000896    4.53  0.000392  ( 0.005140 -0.019034  0.001864)
 62:    717.35   0.005163   26.09  0.002246  ( 0.002605  0.042771  0.020250)
 63:    759.31   0.001138    5.75  0.000468  (-0.009300  0.019507 -0.000862)
 64:    796.54   0.017569   88.79  0.006883  (-0.018025 -0.070706  0.039482)
 65:    866.81   0.004481   22.65  0.001613  ( 0.002661 -0.039987 -0.002708)
 66:    991.83   0.009740   49.22  0.003065  ( 0.001358  0.043769  0.033868)
 67:   1079.72   0.018479   93.38  0.005341  ( 0.055288  0.040964 -0.024617)
 68:   1102.38   0.024474  123.68  0.006928  ( 0.077846 -0.009901  0.027748)
 69:   1106.90   0.012942   65.40  0.003649  ( 0.019084 -0.006271 -0.056966)
 70:   1112.77   0.025139  127.04  0.007050  ( 0.038746 -0.015016  0.072961)
 71:   1121.55   0.067769  342.48  0.018856  ( 0.112185  0.037755 -0.069608)
 72:   1128.92   0.083841  423.70  0.023176  (-0.147959  0.000001  0.035830)
 73:   1138.98   0.004283   21.64  0.001173  (-0.006984 -0.003497  0.033354)
 74:   1140.55   0.042745  216.01  0.011695  (-0.100732  0.006419 -0.038821)
 75:   1147.98   0.142752  721.41  0.038805  (-0.097981  0.046894 -0.164335)
 76:   1154.45   0.085652  432.85  0.023153  ( 0.102029 -0.017073 -0.111586)
 77:   1159.96   0.074040  374.17  0.019919  (-0.079700  0.061421 -0.098966)
 78:   1174.30   0.076495  386.58  0.020328  ( 0.019258 -0.053359  0.130806)
 79:   1184.04   0.006739   34.05  0.001776  (-0.030282  0.011793 -0.026832)
 80:   1211.02   0.011826   59.76  0.003047  ( 0.026477 -0.046253  0.014390)
 81:   1239.55   0.002848   14.39  0.000717  (-0.025065  0.009272 -0.001631)
 82:   1261.55   0.004244   21.45  0.001050  (-0.020776  0.024221  0.005606)
 83:   1279.34   0.006837   34.55  0.001668  (-0.006371  0.020123  0.034961)
 84:   1332.52   0.033941  171.52  0.007949  ( 0.013803  0.087494  0.010149)
 85:   1379.10   0.030295  153.10  0.006855  ( 0.009845  0.081690 -0.009217)
 86:   1662.70   0.016313   82.44  0.003062  ( 0.013528 -0.052905  0.008926)
 87:   1670.37   0.042890  216.75  0.008013  ( 0.075303 -0.037096  0.031085)
 88:   1705.79   0.210569  1064.13  0.038522  ( 0.194550 -0.006531  0.025100)
 89:   3418.26   0.305279  1542.76  0.027870  (-0.159589 -0.026653 -0.041121)
 90:   3448.88   0.094543  477.78  0.008554  ( 0.088074 -0.015396  0.023673)
 91:   3789.91   0.017734   89.62  0.001460  (-0.031664 -0.020283 -0.006797)
 92:   3793.20   0.011448   57.85  0.000942  (-0.017577 -0.025046  0.002355)

--------------------------
THERMOCHEMISTRY AT 298.15K
--------------------------

Temperature         ...   298.15 K
Pressure            ...     1.00 atm
Total Mass          ...   449.09 AMU
Quasi RRHO          ...     True
Cut-Off Frequency   ...     1.00 cm^-1

Throughout the following assumptions are being made:
  (1) The electronic state is orbitally nondegenerate
  (2) There are no thermally accessible electronically excited states
  (3) Hindered rotations indicated by low frequency modes are not
      treated as such but are treated as vibrations and this may
      cause some error
  (4) All equations used are the standard statistical mechanics
      equations for an ideal gas
  (5) All vibrations are strictly harmonic

freq.      18.00  E(vib)   ...       0.57
freq.      22.32  E(vib)   ...       0.56
freq.      28.21  E(vib)   ...       0.55
freq.      36.53  E(vib)   ...       0.54
freq.      39.34  E(vib)   ...       0.54
freq.      45.07  E(vib)   ...       0.53
freq.      50.28  E(vib)   ...       0.52
freq.      58.11  E(vib)   ...       0.51
freq.      61.79  E(vib)   ...       0.51
freq.      66.74  E(vib)   ...       0.50
freq.      71.64  E(vib)   ...       0.50
freq.      75.07  E(vib)   ...       0.49
freq.      88.87  E(vib)   ...       0.47
freq.     114.52  E(vib)   ...       0.44
freq.     118.57  E(vib)   ...       0.44
freq.     130.63  E(vib)   ...       0.43
freq.     151.92  E(vib)   ...       0.40
freq.     163.00  E(vib)   ...       0.39
freq.     182.12  E(vib)   ...       0.37
freq.     189.38  E(vib)   ...       0.36
freq.     196.68  E(vib)   ...       0.36
freq.     200.06  E(vib)   ...       0.35
freq.     206.18  E(vib)   ...       0.35
freq.     225.84  E(vib)   ...       0.33
freq.     234.67  E(vib)   ...       0.32
freq.     246.04  E(vib)   ...       0.31
freq.     247.99  E(vib)   ...       0.31
freq.     265.29  E(vib)   ...       0.29
freq.     278.03  E(vib)   ...       0.28
freq.     296.48  E(vib)   ...       0.27
freq.     305.14  E(vib)   ...       0.26
freq.     327.19  E(vib)   ...       0.24
freq.     341.23  E(vib)   ...       0.23
freq.     352.60  E(vib)   ...       0.22
freq.     355.97  E(vib)   ...       0.22
freq.     363.51  E(vib)   ...       0.22
freq.     364.83  E(vib)   ...       0.22
freq.     371.13  E(vib)   ...       0.21
freq.     397.66  E(vib)   ...       0.20
freq.     411.25  E(vib)   ...       0.19
freq.     442.12  E(vib)   ...       0.17
freq.     462.03  E(vib)   ...       0.16
freq.     507.54  E(vib)   ...       0.14
freq.     514.35  E(vib)   ...       0.13
freq.     533.55  E(vib)   ...       0.13
freq.     546.00  E(vib)   ...       0.12
freq.     552.87  E(vib)   ...       0.12
freq.     569.40  E(vib)   ...       0.11
freq.     587.56  E(vib)   ...       0.10
freq.     598.52  E(vib)   ...       0.10
freq.     626.62  E(vib)   ...       0.09
freq.     651.88  E(vib)   ...       0.08
freq.     664.20  E(vib)   ...       0.08
freq.     670.80  E(vib)   ...       0.08
freq.     684.63  E(vib)   ...       0.07
freq.     712.84  E(vib)   ...       0.07
freq.     717.35  E(vib)   ...       0.07
freq.     759.31  E(vib)   ...       0.06
freq.     796.54  E(vib)   ...       0.05
freq.     866.81  E(vib)   ...       0.04
freq.     991.83  E(vib)   ...       0.02
freq.    1079.72  E(vib)   ...       0.02
freq.    1102.38  E(vib)   ...       0.02
freq.    1106.90  E(vib)   ...       0.02
freq.    1112.77  E(vib)   ...       0.01
freq.    1121.55  E(vib)   ...       0.01
freq.    1128.92  E(vib)   ...       0.01
freq.    1138.98  E(vib)   ...       0.01
freq.    1140.55  E(vib)   ...       0.01
freq.    1147.98  E(vib)   ...       0.01
freq.    1154.45  E(vib)   ...       0.01
freq.    1159.96  E(vib)   ...       0.01
freq.    1174.30  E(vib)   ...       0.01
freq.    1184.04  E(vib)   ...       0.01
freq.    1211.02  E(vib)   ...       0.01
freq.    1239.55  E(vib)   ...       0.01
freq.    1261.55  E(vib)   ...       0.01
freq.    1279.34  E(vib)   ...       0.01
freq.    1332.52  E(vib)   ...       0.01
freq.    1379.10  E(vib)   ...       0.01
freq.    1662.70  E(vib)   ...       0.00
freq.    1670.37  E(vib)   ...       0.00
freq.    1705.79  E(vib)   ...       0.00
freq.    3418.26  E(vib)   ...       0.00
freq.    3448.88  E(vib)   ...       0.00
freq.    3789.91  E(vib)   ...       0.00
freq.    3793.20  E(vib)   ...       0.00

------------
INNER ENERGY
------------

The inner energy is: U= E(el) + E(ZPE) + E(vib) + E(rot) + E(trans)
    E(el)   - is the total energy from the electronic structure calculation
              = E(kin-el) + E(nuc-el) + E(el-el) + E(nuc-nuc)
    E(ZPE)  - the the zero temperature vibrational energy from the frequency calculation
    E(vib)  - the the finite temperature correction to E(ZPE) due to population
              of excited vibrational states
    E(rot)  - is the rotational thermal energy
    E(trans)- is the translational thermal energy

Summary of contributions to the inner energy U:
Electronic energy                ...  -2106.84196001 Eh
Zero point energy                ...      0.14375541 Eh      90.21 kcal/mol
Thermal vibrational correction   ...      0.02744631 Eh      17.22 kcal/mol
Thermal rotational correction    ...      0.00141627 Eh       0.89 kcal/mol
Thermal translational correction ...      0.00141627 Eh       0.89 kcal/mol
-----------------------------------------------------------------------
Total thermal energy                  -2106.66792575 Eh

Summary of corrections to the electronic energy:
(perhaps to be used in another calculation)
Total thermal correction                  0.03027885 Eh      19.00 kcal/mol
Non-thermal (ZPE) correction              0.14375541 Eh      90.21 kcal/mol
-----------------------------------------------------------------------
Total correction                          0.17403426 Eh     109.21 kcal/mol

--------
ENTHALPY
--------

The enthalpy is H = U + kB*T
                kB is Boltzmann's constant
Total thermal energy              ...  -2106.66792575 Eh
Thermal Enthalpy correction       ...      0.00094421 Eh       0.59 kcal/mol
-----------------------------------------------------------------------
Total Enthalpy                    ...  -2106.66698154 Eh

Note: Only C1 symmetry has been detected, increase convergence thresholds
      if your molecule has a higher symmetry. Symmetry factor of 1.0 is
      used for the rotational entropy correction.

Note: Rotational entropy computed according to Herzberg
Infrared and Raman Spectra, Chapter V,1, Van Nostrand Reinhold, 1945
Point Group:  C1, Symmetry Number:   1
Rotational constants in cm-1:     0.013190     0.003225     0.002949

Vibrational entropy computed according to the QRRHO of S. Grimme

                             ****ORCA TERMINATED NORMALLY****
TOTAL RUN TIME: 0 days 0 hours 17 minutes 17 seconds 673 msec
