                         Program Version 6.0.1  -  RELEASE   -
|  1> !r2scanh def2-TZVP opt d3 TightSCF SlowConv defgrid2
|  2>
|  3> %pal
|  4> nprocs 20
|  5> end
|  6>
|  7> %scf
|  8> MaxIter 1500
|  9> end
| 10>
| 11> %maxcore 8000
| 12>
| 13> !CPCM
| 14> %cpcm smd true
| 15> SMDsolvent "ACETONITRILE"
| 16> end
| 17>
| 18> * xyz -1 1
| 19> 6        7.061480798     27.780530965      3.106576640
| 20> 6        6.358244798     26.583375965      2.416992640
| 21> 6        7.290739798     25.361615965      2.191470640
| 22> 6        6.503816798     24.050508965      1.905927640
| 23> 6        7.390081798     22.949036965      1.254848640
| 24> 6        6.769590798     21.526080965      1.366223640
| 25> 6        7.389881798     20.495443965      0.400529640
| 26> 6        7.047594798     19.000380965      0.790287640
| 27> 9        8.211006798     28.061334965      2.509442640
| 28> 9        7.286980798     27.526353965      4.384782640
| 29> 9        6.271788798     28.845445965      3.024205640
| 30> 9        5.320618798     26.239799965      3.188367640
| 31> 9        5.906995798     27.014763965      1.236217640
| 32> 9        8.092105798     25.656497965      1.162788640
| 33> 9        8.034091798     25.196969965      3.293178640
| 34> 9        6.010694798     23.624429965      3.072509640
| 35> 9        5.491631798     24.352956965      1.082460640
| 36> 9        7.554809798     23.292706965     -0.028459360
| 37> 9        8.581822798     22.977688965      1.870991640
| 38> 9        6.960326798     21.133942965      2.637027640
| 39> 9        5.455181798     21.663434965      1.139465640
| 40> 9        6.910796798     20.782536965     -0.839488360
| 41> 9        8.723370798     20.748082965      0.370020640
| 42> 8        8.017941798     18.242246965      0.795072640
| 43> 8        5.838755798     18.846145965      1.003745640
| 44> 8        3.022589945     18.615377681      1.418469618
| 45> 1        2.921133959     17.670398128      1.249412630
| 46> 1        3.952270754     18.785006115      1.221543930
| 47> 1        9.651244624     17.272645385      0.841919800
| 48> 8       10.455174784     16.738287734      0.846178529
| 49> 1       10.221449611     15.976809483      1.391507198
| 50> *
| 51>
| 52>                          ****END OF INPUT****
 Total Charge           Charge          ....   -1
 Multiplicity           Mult            ....    1
 Number of Electrons    NEL             ....  220
Dispersion correction           -0.009651123
FINAL SINGLE POINT ENERGY     -2105.877802606964
Dispersion correction             ... done (  0.0 sec)
Dispersion correction           -0.009643229
FINAL SINGLE POINT ENERGY     -2105.879651454074
Dispersion correction             ... done (  0.0 sec)
Dispersion correction           -0.009663698
FINAL SINGLE POINT ENERGY     -2105.880203383573
Dispersion correction             ... done (  0.0 sec)
FINAL SINGLE POINT ENERGY     -2105.880334003384
FINAL SINGLE POINT ENERGY     -2105.880526698932
FINAL SINGLE POINT ENERGY     -2105.880628648059
FINAL SINGLE POINT ENERGY     -2105.880770707592
FINAL SINGLE POINT ENERGY     -2105.880887911451
FINAL SINGLE POINT ENERGY     -2105.881059574245
FINAL SINGLE POINT ENERGY     -2105.881373886714
FINAL SINGLE POINT ENERGY     -2105.885875580911
FINAL SINGLE POINT ENERGY     -2105.885876400355
FINAL SINGLE POINT ENERGY     -2105.885877268533
FINAL SINGLE POINT ENERGY     -2105.885878476110
FINAL SINGLE POINT ENERGY     -2105.885880775786
FINAL SINGLE POINT ENERGY     -2105.885880150056
FINAL SINGLE POINT ENERGY     -2105.885883985426
Dispersion correction             ... done (  0.0 sec)
Dispersion correction           -0.010367629
FINAL SINGLE POINT ENERGY     -2105.885885198449
Dispersion correction             ... done (  0.0 sec)
Dispersion correction           -0.010365056
FINAL SINGLE POINT ENERGY     -2105.885886675133
Dispersion correction             ... done (  0.0 sec)
                    ***********************HURRAY********************

CARTESIAN COORDINATES (ANGSTROEM)
---------------------------------
  C      7.487515   27.424265    3.046320
  C      6.615141   26.227614    2.576456
  C      7.443738   24.986050    2.137955
  C      6.596555   23.677436    2.091862
  C      7.246185   22.567357    1.211771
  C      6.687017   21.145636    1.507595
  C      6.945199   20.109349    0.387660
  C      6.777299   18.643770    0.916494
  F      8.460570   27.658571    2.171905
  F      8.020550   27.183036    4.235624
  F      6.721365   28.504880    3.134823
  F      5.801745   25.891103    3.589226
  F      5.876199   26.641463    1.539703
  F      7.951594   25.230075    0.920215
  F      8.455583   24.811928    3.001561
  F      6.457589   23.222625    3.345994
  F      5.382570   23.963035    1.596226
  F      7.023357   22.871991   -0.076522
  F      8.571706   22.565669    1.434686
  F      7.264298   20.703173    2.641935
  F      5.361154   21.240222    1.716163
  F      6.081518   20.358004   -0.624166
  F      8.196120   20.323987   -0.094523
  O      7.828166   18.047518    1.184419
  O      5.598567   18.274041    1.017725
  O      3.145575   19.300196    0.230077
  H      2.663317   18.472466    0.149413
  H      4.049427   19.025629    0.477334
  H      9.402096   18.823793    1.556137
  O     10.265695   19.192703    1.827489
  H     10.291564   20.060077    1.414219

 Multiplicity           Mult            ....    1
 Number of Electrons    NEL             ....  220
 Basis Dimension        Dim             ....  861

ORBITAL ENERGIES
----------------

  NO   OCC          E(Eh)            E(eV)
   0   2.0000     -24.732314      -673.0005
   1   2.0000     -24.732062      -672.9936
   2   2.0000     -24.731978      -672.9913
   3   2.0000     -24.731933      -672.9901
   4   2.0000     -24.731320      -672.9734
   5   2.0000     -24.730613      -672.9542
   6   2.0000     -24.730510      -672.9514
   7   2.0000     -24.729892      -672.9346
   8   2.0000     -24.729752      -672.9308
   9   2.0000     -24.725975      -672.8280
  10   2.0000     -24.725167      -672.8060
  11   2.0000     -24.716867      -672.5801
  12   2.0000     -24.716148      -672.5606
  13   2.0000     -24.697110      -672.0425
  14   2.0000     -24.695068      -671.9870
  15   2.0000     -19.076264      -519.0915
  16   2.0000     -19.075270      -519.0645
  17   2.0000     -19.072760      -518.9962
  18   2.0000     -19.072254      -518.9824
  19   2.0000     -10.440144      -284.0908
  20   2.0000     -10.387230      -282.6509
  21   2.0000     -10.385385      -282.6007
  22   2.0000     -10.384844      -282.5860
  23   2.0000     -10.379283      -282.4346
  24   2.0000     -10.366429      -282.0849
  25   2.0000     -10.335357      -281.2394
  26   2.0000     -10.255563      -279.0681
  27   2.0000      -1.361791       -37.0562
  28   2.0000      -1.339276       -36.4435
  29   2.0000      -1.324320       -36.0366
  30   2.0000      -1.315135       -35.7866
  31   2.0000      -1.312703       -35.7205
  32   2.0000      -1.303726       -35.4762
  33   2.0000      -1.280868       -34.8542
  34   2.0000      -1.273818       -34.6624
  35   2.0000      -1.267537       -34.4914
  36   2.0000      -1.266744       -34.4699
  37   2.0000      -1.260845       -34.3093
  38   2.0000      -1.256892       -34.2018
  39   2.0000      -1.254216       -34.1289
  40   2.0000      -1.245067       -33.8800
  41   2.0000      -1.222223       -33.2584
  42   2.0000      -1.053149       -28.6577
  43   2.0000      -0.979584       -26.6558
  44   2.0000      -0.976342       -26.5676
  45   2.0000      -0.964838       -26.2546
  46   2.0000      -0.846434       -23.0326
  47   2.0000      -0.825272       -22.4568
  48   2.0000      -0.795965       -21.6593
  49   2.0000      -0.757733       -20.6190
  50   2.0000      -0.714224       -19.4350
  51   2.0000      -0.683389       -18.5959
  52   2.0000      -0.667215       -18.1558
  53   2.0000      -0.642667       -17.4878
  54   2.0000      -0.638058       -17.3624
  55   2.0000      -0.629589       -17.1320
  56   2.0000      -0.622343       -16.9348
  57   2.0000      -0.618226       -16.8228
  58   2.0000      -0.616777       -16.7834
  59   2.0000      -0.604281       -16.4433
  60   2.0000      -0.600250       -16.3336
  61   2.0000      -0.596329       -16.2269
  62   2.0000      -0.588752       -16.0208
  63   2.0000      -0.578303       -15.7364
  64   2.0000      -0.575977       -15.6731
  65   2.0000      -0.570183       -15.5155
  66   2.0000      -0.565420       -15.3859
  67   2.0000      -0.549451       -14.9513
  68   2.0000      -0.505988       -13.7686
  69   2.0000      -0.503967       -13.7136
  70   2.0000      -0.500927       -13.6309
  71   2.0000      -0.495696       -13.4886
  72   2.0000      -0.491812       -13.3829
  73   2.0000      -0.488087       -13.2815
  74   2.0000      -0.486981       -13.2514
  75   2.0000      -0.484434       -13.1821
  76   2.0000      -0.481401       -13.0996
  77   2.0000      -0.474035       -12.8992
  78   2.0000      -0.470371       -12.7994
  79   2.0000      -0.468506       -12.7487
  80   2.0000      -0.466021       -12.6811
  81   2.0000      -0.460361       -12.5270
  82   2.0000      -0.458069       -12.4647
  83   2.0000      -0.454259       -12.3610
  84   2.0000      -0.449383       -12.2283
  85   2.0000      -0.448782       -12.2120
  86   2.0000      -0.439825       -11.9682
  87   2.0000      -0.438438       -11.9305
  88   2.0000      -0.436267       -11.8714
  89   2.0000      -0.432541       -11.7700
  90   2.0000      -0.430944       -11.7266
  91   2.0000      -0.429043       -11.6748
  92   2.0000      -0.426811       -11.6141
  93   2.0000      -0.424460       -11.5501
  94   2.0000      -0.423120       -11.5137
  95   2.0000      -0.417436       -11.3590
  96   2.0000      -0.412888       -11.2353
  97   2.0000      -0.408960       -11.1284
  98   2.0000      -0.406662       -11.0658
  99   2.0000      -0.395304       -10.7568
 100   2.0000      -0.391293       -10.6476
 101   2.0000      -0.361785        -9.8447
 102   2.0000      -0.348553        -9.4846
 103   2.0000      -0.345362        -9.3978
 104   2.0000      -0.328584        -8.9412
 105   2.0000      -0.274995        -7.4830
 106   2.0000      -0.272072        -7.4035
 107   2.0000      -0.261798        -7.1239
 108   2.0000      -0.248276        -6.7559
 109   2.0000      -0.246274        -6.7015
 110   0.0000      -0.020404        -0.5552
 111   0.0000      -0.002973        -0.0809
 112   0.0000       0.013433         0.3655
 113   0.0000       0.038885         1.0581
 114   0.0000       0.050841         1.3835

MULLIKEN ATOMIC CHARGES
-----------------------
   0 C :    0.471125
   1 C :    0.331128
   2 C :    0.299356
   3 C :    0.324096
   4 C :    0.333496
   5 C :    0.276759
   6 C :    0.322638
   7 C :    0.336432
   8 F :   -0.156194
   9 F :   -0.153850
  10 F :   -0.153361
  11 F :   -0.163046
  12 F :   -0.159538
  13 F :   -0.163627
  14 F :   -0.163335
  15 F :   -0.164071
  16 F :   -0.164617
  17 F :   -0.167614
  18 F :   -0.171039
  19 F :   -0.177678
  20 F :   -0.176154
  21 F :   -0.200366
  22 F :   -0.205562
  23 O :   -0.524780
  24 O :   -0.537181
  25 O :   -0.741539
  26 H :    0.337324
  27 H :    0.355826
  28 H :    0.355381
  29 O :   -0.737872
  30 H :    0.337863
Sum of atomic charges:   -1.0000000

LOEWDIN ATOMIC CHARGES
----------------------
   0 C :   -0.679134
   1 C :   -0.479536
   2 C :   -0.472372
   3 C :   -0.470702
   4 C :   -0.469459
   5 C :   -0.471813
   6 C :   -0.457332
   7 C :   -0.652712
   8 F :    0.230406
   9 F :    0.233455
  10 F :    0.231849
  11 F :    0.230632
  12 F :    0.232674
  13 F :    0.232394
  14 F :    0.232038
  15 F :    0.232144
  16 F :    0.231097
  17 F :    0.227922
  18 F :    0.225839
  19 F :    0.218465
  20 F :    0.222394
  21 F :    0.185094
  22 F :    0.181250
  23 O :   -0.022233
  24 O :   -0.026867
  25 O :   -0.364672
  26 H :    0.155530
  27 H :    0.137990
  28 H :    0.135862
  29 O :   -0.359098
  30 H :    0.148895

  Mayer bond orders larger than 0.100000
B(  0-C ,  1-C ) :   0.9540 B(  0-C ,  8-F ) :   1.1275 B(  0-C ,  9-F ) :   1.1434
B(  0-C , 10-F ) :   1.1341 B(  1-C ,  2-C ) :   0.9345 B(  1-C , 11-F ) :   1.0826
B(  1-C , 12-F ) :   1.0978 B(  2-C ,  3-C ) :   0.9306 B(  2-C , 13-F ) :   1.0803
B(  2-C , 14-F ) :   1.0914 B(  3-C ,  4-C ) :   0.9336 B(  3-C , 15-F ) :   1.0812
B(  3-C , 16-F ) :   1.0806 B(  4-C ,  5-C ) :   0.9258 B(  4-C , 17-F ) :   1.0820
B(  4-C , 18-F ) :   1.0671 B(  5-C ,  6-C ) :   0.9251 B(  5-C , 19-F ) :   1.0730
B(  5-C , 20-F ) :   1.0755 B(  6-C ,  7-C ) :   0.8836 B(  6-C , 21-F ) :   1.0494
B(  6-C , 22-F ) :   1.0300 B(  7-C , 23-O ) :   1.7142 B(  7-C , 24-O ) :   1.6949
B( 23-O , 28-H ) :   0.1070 B( 24-O , 27-H ) :   0.1011 B( 25-O , 26-H ) :   0.8981
B( 25-O , 27-H ) :   0.8201 B( 28-H , 29-O ) :   0.8219 B( 29-O , 30-H ) :   0.8974

Dispersion correction           -0.010364818
FINAL SINGLE POINT ENERGY     -2105.885886907944

DIPOLE MOMENT
-------------

Method             : SCF
Type of density    : Electron Density
Multiplicity       :   1
Irrep              :   0
Energy             : -2105.8755220898051448 Eh
Relativity type    :
Basis              : AO
                                X                 Y                 Z
Electronic contribution:      2.446426241      37.039783377       6.412728978
Nuclear contribution   :     -2.333054970     -29.307106234      -5.469247620
                        -----------------------------------------
Total Dipole Moment    :      0.113371271       7.732677143       0.943481358
                        -----------------------------------------
Magnitude (a.u.)       :      7.790847574
Magnitude (Debye)      :     19.802760781

Rotational constants in cm-1:             0.013420             0.003319             0.003032
Rotational constants in MHz :           402.313810            99.516032            90.889372

                             ****ORCA TERMINATED NORMALLY****
TOTAL RUN TIME: 0 days 1 hours 44 minutes 41 seconds 761 msec
