                         Program Version 6.0.1  -  RELEASE   -
|  1> !B3LYP def2-TZVP freq d3 TightSCF SlowConv defgrid2
|  2>
|  3> %pal
|  4> nprocs 20
|  5> end
|  6>
|  7> %scf
|  8> MaxIter 1500
|  9> end
| 10>
| 11> %maxcore 8000
| 12>
| 13> !CPCM
| 14> %cpcm smd true
| 15> SMDsolvent "ACETONITRILE"
| 16> end
| 17>
| 18> * xyz 0 2
| 19> 6        4.425704000      0.383092000     -0.145470000
| 20> 8        5.280572000     -0.355335000     -0.837292000
| 21> 8        4.450176000      1.570449000      0.002319000
| 22> 6        3.310021000     -0.500109000      0.480134000
| 23> 6        2.200767000     -0.768053000     -0.484865000
| 24> 6        0.812345000     -1.210432000     -0.140278000
| 25> 6       -0.236236000     -0.043784000     -0.176250000
| 26> 6       -1.733228000     -0.505833000     -0.131759000
| 27> 6       -2.720127000      0.636972000      0.285561000
| 28> 6       -4.218207000      0.350697000     -0.057931000
| 29> 9        3.854024000     -1.676107000      0.930521000
| 30> 9        2.822023000      0.138482000      1.574114000
| 31> 9        2.462537000     -0.617881000     -1.771873000
| 32> 9        0.405904000     -2.155982000     -1.028494000
| 33> 9        0.816176000     -1.747646000      1.100112000
| 34> 9        0.012623000      0.768281000      0.871264000
| 35> 9       -0.044865000      0.652007000     -1.316207000
| 36> 9       -1.866272000     -1.516226000      0.750101000
| 37> 9       -2.075259000     -0.956255000     -1.355571000
| 38> 9       -2.373328000      1.783005000     -0.334050000
| 39> 9       -2.633243000      0.817917000      1.616225000
| 40> 9       -4.581485000     -0.855190000      0.384643000
| 41> 9       -4.977553000      1.273363000      0.536871000
| 42> 9       -4.425906000      0.413011000     -1.372786000
| 43> 1        5.961669000      0.223469000     -1.234451000
| 44> *
| 45>
| 46>                          ****END OF INPUT****

CARTESIAN COORDINATES (ANGSTROEM)
---------------------------------
  C      4.425704    0.383092   -0.145470
  O      5.280572   -0.355335   -0.837292
  O      4.450176    1.570449    0.002319
  C      3.310021   -0.500109    0.480134
  C      2.200767   -0.768053   -0.484865
  C      0.812345   -1.210432   -0.140278
  C     -0.236236   -0.043784   -0.176250
  C     -1.733228   -0.505833   -0.131759
  C     -2.720127    0.636972    0.285561
  C     -4.218207    0.350697   -0.057931
  F      3.854024   -1.676107    0.930521
  F      2.822023    0.138482    1.574114
  F      2.462537   -0.617881   -1.771873
  F      0.405904   -2.155982   -1.028494
  F      0.816176   -1.747646    1.100112
  F      0.012623    0.768281    0.871264
  F     -0.044865    0.652007   -1.316207
  F     -1.866272   -1.516226    0.750101
  F     -2.075259   -0.956255   -1.355571
  F     -2.373328    1.783005   -0.334050
  F     -2.633243    0.817917    1.616225
  F     -4.581485   -0.855190    0.384643
  F     -4.977553    1.273363    0.536871
  F     -4.425906    0.413011   -1.372786
  H      5.961669    0.223469   -1.234451

 Total Charge           Charge          ....    0
 Multiplicity           Mult            ....    2
 Number of Electrons    NEL             ....  191
 Basis Dimension        Dim             ....  750

ORBITAL ENERGIES
----------------
                 SPIN UP ORBITALS
  NO   OCC          E(Eh)            E(eV)
   0   1.0000     -24.758571      -673.7150
   1   1.0000     -24.746521      -673.3871
   2   1.0000     -24.745583      -673.3615
   3   1.0000     -24.745404      -673.3567
   4   1.0000     -24.745152      -673.3498
   5   1.0000     -24.745141      -673.3495
   6   1.0000     -24.744679      -673.3369
   7   1.0000     -24.744393      -673.3292
   8   1.0000     -24.744086      -673.3208
   9   1.0000     -24.743383      -673.3017
  10   1.0000     -24.739407      -673.1935
  11   1.0000     -24.737270      -673.1354
  12   1.0000     -24.726292      -672.8366
  13   1.0000     -24.721356      -672.7023
  14   1.0000     -19.205660      -522.6126
  15   1.0000     -19.152827      -521.1749
  16   1.0000     -10.462838      -284.7083
  17   1.0000     -10.410541      -283.2852
  18   1.0000     -10.408967      -283.2424
  19   1.0000     -10.406843      -283.1846
  20   1.0000     -10.406400      -283.1726
  21   1.0000     -10.392545      -282.7955
  22   1.0000     -10.344099      -281.4772
  23   1.0000     -10.326520      -280.9989
  24   1.0000      -1.355253       -36.8783
  25   1.0000      -1.332044       -36.2468
  26   1.0000      -1.316503       -35.8239
  27   1.0000      -1.309310       -35.6281
  28   1.0000      -1.306153       -35.5422
  29   1.0000      -1.297366       -35.3031
  30   1.0000      -1.291668       -35.1481
  31   1.0000      -1.268859       -34.5274
  32   1.0000      -1.262498       -34.3543
  33   1.0000      -1.261823       -34.3359
  34   1.0000      -1.255163       -34.1547
  35   1.0000      -1.251686       -34.0601
  36   1.0000      -1.247500       -33.9462
  37   1.0000      -1.232268       -33.5317
  38   1.0000      -1.144950       -31.1557
  39   1.0000      -1.060649       -28.8617
  40   1.0000      -0.857709       -23.3394
  41   1.0000      -0.842402       -22.9229
  42   1.0000      -0.811618       -22.0853
  43   1.0000      -0.779521       -21.2118
  44   1.0000      -0.736471       -20.0404
  45   1.0000      -0.700242       -19.0546
  46   1.0000      -0.684467       -18.6253
  47   1.0000      -0.661046       -17.9880
  48   1.0000      -0.653185       -17.7741
  49   1.0000      -0.648368       -17.6430
  50   1.0000      -0.640005       -17.4154
  51   1.0000      -0.631259       -17.1774
  52   1.0000      -0.627985       -17.0883
  53   1.0000      -0.626536       -17.0489
  54   1.0000      -0.616310       -16.7706
  55   1.0000      -0.608428       -16.5562
  56   1.0000      -0.606227       -16.4963
  57   1.0000      -0.602416       -16.3926
  58   1.0000      -0.593941       -16.1620
  59   1.0000      -0.588644       -16.0178
  60   1.0000      -0.580065       -15.7844
  61   1.0000      -0.569350       -15.4928
  62   1.0000      -0.536434       -14.5971
  63   1.0000      -0.518954       -14.1215
  64   1.0000      -0.518466       -14.1082
  65   1.0000      -0.514155       -13.9909
  66   1.0000      -0.509598       -13.8669
  67   1.0000      -0.504664       -13.7326
  68   1.0000      -0.501866       -13.6565
  69   1.0000      -0.500809       -13.6277
  70   1.0000      -0.495051       -13.4710
  71   1.0000      -0.490362       -13.3434
  72   1.0000      -0.487913       -13.2768
  73   1.0000      -0.481595       -13.1049
  74   1.0000      -0.479039       -13.0353
  75   1.0000      -0.476613       -12.9693
  76   1.0000      -0.468595       -12.7511
  77   1.0000      -0.465564       -12.6687
  78   1.0000      -0.464426       -12.6377
  79   1.0000      -0.461064       -12.5462
  80   1.0000      -0.460085       -12.5196
  81   1.0000      -0.455849       -12.4043
  82   1.0000      -0.454436       -12.3658
  83   1.0000      -0.449976       -12.2445
  84   1.0000      -0.447949       -12.1893
  85   1.0000      -0.445194       -12.1143
  86   1.0000      -0.443238       -12.0611
  87   1.0000      -0.441600       -12.0166
  88   1.0000      -0.436817       -11.8864
  89   1.0000      -0.431299       -11.7362
  90   1.0000      -0.409783       -11.1508
  91   1.0000      -0.392665       -10.6849
  92   1.0000      -0.360553        -9.8112
  93   1.0000      -0.358388        -9.7522
  94   1.0000      -0.318567        -8.6686
  95   1.0000      -0.272753        -7.4220
  96   0.0000      -0.045307        -1.2329
  97   0.0000       0.002839         0.0772
  98   0.0000       0.004450         0.1211
  99   0.0000       0.033086         0.9003
 100   0.0000       0.037315         1.0154

                 SPIN DOWN ORBITALS
  NO   OCC          E(Eh)            E(eV)
   0   1.0000     -24.753978      -673.5900
   1   1.0000     -24.746522      -673.3871
   2   1.0000     -24.745584      -673.3616
   3   1.0000     -24.745403      -673.3567
   4   1.0000     -24.745148      -673.3497
   5   1.0000     -24.745139      -673.3495
   6   1.0000     -24.744669      -673.3367
   7   1.0000     -24.744366      -673.3284
   8   1.0000     -24.744083      -673.3207
   9   1.0000     -24.743347      -673.3007
  10   1.0000     -24.739117      -673.1856
  11   1.0000     -24.736503      -673.1145
  12   1.0000     -24.725512      -672.8154
  13   1.0000     -24.719768      -672.6591
  14   1.0000     -19.205632      -522.6118
  15   1.0000     -19.152777      -521.1736
  16   1.0000     -10.462821      -284.7078
  17   1.0000     -10.410423      -283.2820
  18   1.0000     -10.408923      -283.2412
  19   1.0000     -10.407705      -283.2081
  20   1.0000     -10.405748      -283.1548
  21   1.0000     -10.393273      -282.8153
  22   1.0000     -10.344044      -281.4757
  23   1.0000     -10.312134      -280.6074
  24   1.0000      -1.355239       -36.8779
  25   1.0000      -1.331699       -36.2374
  26   1.0000      -1.315625       -35.8000
  27   1.0000      -1.309153       -35.6239
  28   1.0000      -1.304136       -35.4874
  29   1.0000      -1.292495       -35.1706
  30   1.0000      -1.286292       -35.0018
  31   1.0000      -1.268816       -34.5262
  32   1.0000      -1.262384       -34.3512
  33   1.0000      -1.261748       -34.3339
  34   1.0000      -1.254964       -34.1493
  35   1.0000      -1.251618       -34.0583
  36   1.0000      -1.246432       -33.9171
  37   1.0000      -1.229376       -33.4530
  38   1.0000      -1.144835       -31.1525
  39   1.0000      -1.060552       -28.8591
  40   1.0000      -0.850238       -23.1362
  41   1.0000      -0.834290       -22.7022
  42   1.0000      -0.807551       -21.9746
  43   1.0000      -0.777780       -21.1645
  44   1.0000      -0.731950       -19.9174
  45   1.0000      -0.697622       -18.9832
  46   1.0000      -0.682744       -18.5784
  47   1.0000      -0.658177       -17.9099
  48   1.0000      -0.652216       -17.7477
  49   1.0000      -0.647530       -17.6202
  50   1.0000      -0.639768       -17.4090
  51   1.0000      -0.629413       -17.1272
  52   1.0000      -0.626453       -17.0467
  53   1.0000      -0.625059       -17.0087
  54   1.0000      -0.614739       -16.7279
  55   1.0000      -0.606436       -16.5020
  56   1.0000      -0.603905       -16.4331
  57   1.0000      -0.601299       -16.3622
  58   1.0000      -0.589548       -16.0424
  59   1.0000      -0.587631       -15.9903
  60   1.0000      -0.578748       -15.7485
  61   1.0000      -0.567638       -15.4462
  62   1.0000      -0.518912       -14.1203
  63   1.0000      -0.518263       -14.1027
  64   1.0000      -0.514565       -14.0020
  65   1.0000      -0.510881       -13.9018
  66   1.0000      -0.506738       -13.7890
  67   1.0000      -0.502263       -13.6673
  68   1.0000      -0.501536       -13.6475
  69   1.0000      -0.499534       -13.5930
  70   1.0000      -0.493642       -13.4327
  71   1.0000      -0.490018       -13.3341
  72   1.0000      -0.486826       -13.2472
  73   1.0000      -0.481085       -13.0910
  74   1.0000      -0.477577       -12.9955
  75   1.0000      -0.475707       -12.9446
  76   1.0000      -0.467392       -12.7184
  77   1.0000      -0.465295       -12.6613
  78   1.0000      -0.461309       -12.5528
  79   1.0000      -0.459218       -12.4960
  80   1.0000      -0.457639       -12.4530
  81   1.0000      -0.455637       -12.3985
  82   1.0000      -0.454272       -12.3614
  83   1.0000      -0.449625       -12.2349
  84   1.0000      -0.446929       -12.1616
  85   1.0000      -0.444637       -12.0992
  86   1.0000      -0.442981       -12.0541
  87   1.0000      -0.439567       -11.9612
  88   1.0000      -0.434843       -11.8327
  89   1.0000      -0.430061       -11.7026
  90   1.0000      -0.407713       -11.0944
  91   1.0000      -0.390096       -10.6151
  92   1.0000      -0.359838        -9.7917
  93   1.0000      -0.356572        -9.7028
  94   1.0000      -0.318017        -8.6537
  95   0.0000      -0.130086        -3.5398
  96   0.0000      -0.043301        -1.1783
  97   0.0000       0.005407         0.1471
  98   0.0000       0.007325         0.1993
  99   0.0000       0.036571         0.9951

MULLIKEN ATOMIC CHARGES AND SPIN POPULATIONS
--------------------------------------------
   0 C :    0.234285   -0.003493
   1 O :   -0.353545   -0.000154
   2 O :   -0.286727    0.001894
   3 C :    0.439813    0.004899
   4 C :    0.106128    0.825006
   5 C :    0.385956   -0.016778
   6 C :    0.318177    0.028954
   7 C :    0.310300    0.004831
   8 C :    0.325456    0.001870
   9 C :    0.475943    0.000584
  10 F :   -0.190787    0.028584
  11 F :   -0.182911    0.013695
  12 F :   -0.144969    0.088109
  13 F :   -0.175738    0.014335
  14 F :   -0.171644    0.005221
  15 F :   -0.172344    0.000574
  16 F :   -0.172449    0.000778
  17 F :   -0.167763   -0.000042
  18 F :   -0.168112    0.000214
  19 F :   -0.165794    0.000017
  20 F :   -0.162764    0.000068
  21 F :   -0.154735   -0.000014
  22 F :   -0.152450    0.000193
  23 F :   -0.152637    0.000013
  24 H :    0.379313    0.000640
Sum of atomic charges         :    0.0000000

LOEWDIN ATOMIC CHARGES AND SPIN POPULATIONS
-------------------------------------------
   0 C :   -0.482757    0.001820
   1 O :    0.152583    0.000561
   2 O :    0.133575    0.001588
   3 C :   -0.457693    0.060866
   4 C :   -0.154718    0.651720
   5 C :   -0.474488    0.063973
   6 C :   -0.450919    0.023286
   7 C :   -0.456547    0.005429
   8 C :   -0.462848    0.001795
   9 C :   -0.663658    0.000473
  10 F :    0.173154    0.033674
  11 F :    0.199821    0.017430
  12 F :    0.264546    0.113665
  13 F :    0.206875    0.015174
  14 F :    0.219179    0.005781
  15 F :    0.224527    0.000828
  16 F :    0.223015    0.001044
  17 F :    0.224771   -0.000045
  18 F :    0.223812    0.000271
  19 F :    0.223391   -0.000034
  20 F :    0.224608    0.000080
  21 F :    0.225506   -0.000013
  22 F :    0.225467    0.000226
  23 F :    0.226866    0.000018
  24 H :    0.231934    0.000393

  Mayer bond orders larger than 0.100000
B(  0-C ,  1-O ) :   1.2986 B(  0-C ,  2-O ) :   2.0868 B(  0-C ,  3-C ) :   0.8935
B(  1-O , 24-H ) :   0.8231 B(  3-C ,  4-C ) :   1.0198 B(  3-C , 10-F ) :   1.0732
B(  3-C , 11-F ) :   1.0863 B(  4-C ,  5-C ) :   1.0511 B(  4-C , 12-F ) :   1.1242
B(  5-C ,  6-C ) :   0.9231 B(  5-C , 13-F ) :   1.0712 B(  5-C , 14-F ) :   1.0901
B(  6-C ,  7-C ) :   0.9220 B(  6-C , 15-F ) :   1.0822 B(  6-C , 16-F ) :   1.0750
B(  7-C ,  8-C ) :   0.9232 B(  7-C , 17-F ) :   1.0828 B(  7-C , 18-F ) :   1.0882
B(  8-C ,  9-C ) :   0.9673 B(  8-C , 19-F ) :   1.0870 B(  8-C , 20-F ) :   1.0963
B(  9-C , 21-F ) :   1.1442 B(  9-C , 22-F ) :   1.1480 B(  9-C , 23-F ) :   1.1555

Dispersion correction           -0.042879428
FINAL SINGLE POINT ENERGY     -1853.734957217026

DIPOLE MOMENT
-------------

Method             : SCF
Type of density    : Electron Density
Multiplicity       :   2
Irrep              :   0
Energy             : -1853.6920777894119965 Eh
Relativity type    :
Basis              : AO
                                X                 Y                 Z
Electronic contribution:    -14.691870513      -1.679941069       1.053912003
Nuclear contribution   :     15.724490866       1.505418970      -1.953817482
                        -----------------------------------------
Total Dipole Moment    :      1.032620353      -0.174522100      -0.899905479
                        -----------------------------------------
Magnitude (a.u.)       :      1.380794202
Magnitude (Debye)      :      3.509699940

VIBRATIONAL FREQUENCIES
-----------------------

Scaling factor for frequencies =  1.000000000  (already applied!)

     0:       0.00 cm**-1
     1:       0.00 cm**-1
     2:       0.00 cm**-1
     3:       0.00 cm**-1
     4:       0.00 cm**-1
     5:       0.00 cm**-1
     6:      25.62 cm**-1
     7:      26.54 cm**-1
     8:      37.31 cm**-1
     9:      46.20 cm**-1
    10:      47.98 cm**-1
    11:      51.86 cm**-1
    12:      59.99 cm**-1
    13:      76.92 cm**-1
    14:     103.16 cm**-1
    15:     123.62 cm**-1
    16:     155.11 cm**-1
    17:     165.94 cm**-1
    18:     186.56 cm**-1
    19:     197.77 cm**-1
    20:     209.14 cm**-1
    21:     225.73 cm**-1
    22:     244.57 cm**-1
    23:     247.40 cm**-1
    24:     255.58 cm**-1
    25:     278.09 cm**-1
    26:     285.49 cm**-1
    27:     307.34 cm**-1
    28:     319.62 cm**-1
    29:     346.36 cm**-1
    30:     350.13 cm**-1
    31:     361.45 cm**-1
    32:     371.20 cm**-1
    33:     374.88 cm**-1
    34:     407.38 cm**-1
    35:     424.33 cm**-1
    36:     468.43 cm**-1
    37:     494.98 cm**-1
    38:     522.18 cm**-1
    39:     530.99 cm**-1
    40:     554.08 cm**-1
    41:     559.95 cm**-1
    42:     569.57 cm**-1
    43:     594.90 cm**-1
    44:     607.47 cm**-1
    45:     626.82 cm**-1
    46:     652.48 cm**-1
    47:     667.07 cm**-1
    48:     698.74 cm**-1
    49:     717.87 cm**-1
    50:     758.32 cm**-1
    51:     771.27 cm**-1
    52:     872.00 cm**-1
    53:     988.38 cm**-1
    54:    1036.07 cm**-1
    55:    1085.98 cm**-1
    56:    1107.90 cm**-1
    57:    1116.03 cm**-1
    58:    1126.66 cm**-1
    59:    1137.24 cm**-1
    60:    1143.94 cm**-1
    61:    1154.68 cm**-1
    62:    1156.67 cm**-1
    63:    1164.65 cm**-1
    64:    1182.09 cm**-1
    65:    1186.57 cm**-1
    66:    1202.29 cm**-1
    67:    1235.35 cm**-1
    68:    1271.23 cm**-1
    69:    1311.74 cm**-1
    70:    1332.32 cm**-1
    71:    1365.97 cm**-1
    72:    1407.71 cm**-1
    73:    1824.18 cm**-1
    74:    3613.73 cm**-1

IR SPECTRUM
-----------

 Mode   freq       eps      Int      T**2         TX        TY        TZ
       cm**-1   L/(mol*cm) km/mol    a.u.
----------------------------------------------------------------------------
  6:     25.62   0.000109    0.55  0.001326  ( 0.008529  0.034179  0.009218)
  7:     26.54   0.000023    0.12  0.000274  ( 0.007295 -0.004355  0.014191)
  8:     37.31   0.000095    0.48  0.000791  (-0.011974  0.023206 -0.010456)
  9:     46.20   0.000113    0.57  0.000761  (-0.011897  0.023340 -0.008633)
 10:     47.98   0.000020    0.10  0.000127  (-0.000315 -0.011212  0.001297)
 11:     51.86   0.000744    3.76  0.004476  (-0.037524  0.009053 -0.054648)
 12:     59.99   0.000002    0.01  0.000008  ( 0.001126  0.002481  0.000902)
 13:     76.92   0.000069    0.35  0.000280  ( 0.010330  0.012129  0.005099)
 14:    103.16   0.000063    0.32  0.000191  (-0.008046 -0.008808  0.007007)
 15:    123.62   0.000197    1.00  0.000498  ( 0.019531  0.005627 -0.009197)
 16:    155.11   0.000158    0.80  0.000317  (-0.016841 -0.000007 -0.005767)
 17:    165.94   0.000281    1.42  0.000528  ( 0.008554 -0.009639 -0.019013)
 18:    186.56   0.001043    5.27  0.001744  ( 0.016509 -0.004895  0.038049)
 19:    197.77   0.001593    8.05  0.002513  ( 0.009110  0.012715 -0.047626)
 20:    209.14   0.000115    0.58  0.000171  (-0.005902  0.011624  0.001147)
 21:    225.73   0.000108    0.55  0.000149  (-0.007330 -0.009412  0.002642)
 22:    244.57   0.000052    0.27  0.000067  ( 0.007798 -0.001873  0.001631)
 23:    247.40   0.000058    0.30  0.000074  ( 0.007907  0.000904 -0.003216)
 24:    255.58   0.000496    2.51  0.000606  (-0.021376 -0.007407  0.009695)
 25:    278.09   0.000265    1.34  0.000298  ( 0.012670  0.007711  0.008815)
 26:    285.49   0.001438    7.27  0.001571  ( 0.034592 -0.018823 -0.004522)
 27:    307.34   0.000006    0.03  0.000006  ( 0.000291  0.002520  0.000034)
 28:    319.62   0.000090    0.45  0.000088  (-0.006680 -0.006516  0.000764)
 29:    346.36   0.000415    2.10  0.000374  (-0.003273 -0.009423 -0.016568)
 30:    350.13   0.000078    0.39  0.000069  (-0.008084  0.000272 -0.002004)
 31:    361.45   0.000059    0.30  0.000051  ( 0.003100 -0.006425 -0.000464)
 32:    371.20   0.000617    3.12  0.000519  ( 0.014340  0.016737 -0.005766)
 33:    374.88   0.000091    0.46  0.000076  (-0.005522  0.006722 -0.000649)
 34:    407.38   0.000719    3.63  0.000551  ( 0.022258 -0.006298  0.003965)
 35:    424.33   0.002177   11.00  0.001601  ( 0.039923  0.001794  0.001895)
 36:    468.43   0.002118   10.70  0.001411  (-0.022422 -0.008370  0.028951)
 37:    494.98   0.003003   15.18  0.001893  ( 0.039499  0.001757 -0.018168)
 38:    522.18   0.004891   24.72  0.002923  ( 0.041572 -0.027406 -0.021068)
 39:    530.99   0.001263    6.38  0.000742  ( 0.006532 -0.025147  0.008192)
 40:    554.08   0.003449   17.43  0.001943  (-0.034596 -0.024874  0.011274)
 41:    559.95   0.008737   44.15  0.004869  ( 0.061986  0.006135  0.031454)
 42:    569.57   0.002983   15.07  0.001634  ( 0.003034 -0.032358 -0.024044)
 43:    594.90   0.006924   34.99  0.003632  (-0.056747  0.017717 -0.009886)
 44:    607.47   0.004717   23.84  0.002423  (-0.018474  0.005108 -0.045339)
 45:    626.82   0.036540  184.66  0.018192  ( 0.106815 -0.019316  0.080057)
 46:    652.48   0.040605  205.20  0.019420  ( 0.137256  0.003093 -0.023902)
 47:    667.07   0.003619   18.29  0.001693  ( 0.037632 -0.006565  0.015292)
 48:    698.74   0.014331   72.43  0.006401  ( 0.074180 -0.029081 -0.007217)
 49:    717.87   0.004684   23.67  0.002036  ( 0.038673 -0.020426 -0.011110)
 50:    758.32   0.001645    8.31  0.000677  (-0.009513  0.014467 -0.019419)
 51:    771.27   0.010791   54.53  0.004366  (-0.009632  0.000370  0.065371)
 52:    872.00   0.005182   26.19  0.001854  ( 0.022028 -0.034088 -0.014389)
 53:    988.38   0.015179   76.71  0.004792  ( 0.058875  0.021111  0.029673)
 54:   1036.07   0.057215  289.14  0.017233  ( 0.063812 -0.113188  0.018695)
 55:   1085.98   0.021783  110.08  0.006260  (-0.034824  0.070848  0.005230)
 56:   1107.90   0.010368   52.39  0.002920  ( 0.008849  0.049830  0.018946)
 57:   1116.03   0.027712  140.05  0.007749  (-0.060257  0.045269  0.045483)
 58:   1126.66   0.102626  518.63  0.028425  ( 0.061670  0.149910  0.046357)
 59:   1137.24   0.058866  297.48  0.016153  ( 0.033955 -0.048956 -0.112264)
 60:   1143.94   0.037936  191.71  0.010349  (-0.006203  0.005347 -0.101399)
 61:   1154.68   0.138729  701.08  0.037493  ( 0.019349  0.073899 -0.177925)
 62:   1156.67   0.033842  171.03  0.009131  (-0.002989 -0.095501  0.001105)
 63:   1164.65   0.088159  445.52  0.023622  (-0.003748  0.022271  0.152025)
 64:   1182.09   0.054952  277.71  0.014507  ( 0.018221 -0.085634  0.082715)
 65:   1186.57   0.025561  129.18  0.006723  (-0.068959  0.017208  0.040879)
 66:   1202.29   0.025265  127.68  0.006558  ( 0.016719  0.019282  0.076852)
 67:   1235.35   0.010226   51.68  0.002583  ( 0.040808 -0.029425 -0.007222)
 68:   1271.23   0.006154   31.10  0.001511  (-0.025725  0.024009 -0.016506)
 69:   1311.74   0.020841  105.32  0.004958  ( 0.059397  0.037362  0.005855)
 70:   1332.32   0.022483  113.62  0.005266  ( 0.070156 -0.009340 -0.016031)
 71:   1365.97   0.006582   33.26  0.001504  ( 0.033477  0.006577  0.018435)
 72:   1407.71   0.015350   77.57  0.003403  (-0.035488  0.024030  0.039573)
 73:   1824.18   0.092655  468.24  0.015851  ( 0.014729 -0.119676 -0.036211)
 74:   3613.73   0.050280  254.09  0.004342  (-0.054014 -0.017477  0.033450)

--------------------------
THERMOCHEMISTRY AT 298.15K
--------------------------

Temperature         ...   298.15 K
Pressure            ...     1.00 atm
Total Mass          ...   395.07 AMU
Quasi RRHO          ...     True
Cut-Off Frequency   ...     1.00 cm^-1

Throughout the following assumptions are being made:
  (1) The electronic state is orbitally nondegenerate
      but the spin degeneracy is treated
  (2) There are no thermally accessible electronically excited states
  (3) Hindered rotations indicated by low frequency modes are not
      treated as such but are treated as vibrations and this may
      cause some error
  (4) All equations used are the standard statistical mechanics
      equations for an ideal gas
  (5) All vibrations are strictly harmonic

freq.      25.62  E(vib)   ...       0.56
freq.      26.54  E(vib)   ...       0.56
freq.      37.31  E(vib)   ...       0.54
freq.      46.20  E(vib)   ...       0.53
freq.      47.98  E(vib)   ...       0.53
freq.      51.86  E(vib)   ...       0.52
freq.      59.99  E(vib)   ...       0.51
freq.      76.92  E(vib)   ...       0.49
freq.     103.16  E(vib)   ...       0.46
freq.     123.62  E(vib)   ...       0.43
freq.     155.11  E(vib)   ...       0.40
freq.     165.94  E(vib)   ...       0.39
freq.     186.56  E(vib)   ...       0.37
freq.     197.77  E(vib)   ...       0.35
freq.     209.14  E(vib)   ...       0.34
freq.     225.73  E(vib)   ...       0.33
freq.     244.57  E(vib)   ...       0.31
freq.     247.40  E(vib)   ...       0.31
freq.     255.58  E(vib)   ...       0.30
freq.     278.09  E(vib)   ...       0.28
freq.     285.49  E(vib)   ...       0.28
freq.     307.34  E(vib)   ...       0.26
freq.     319.62  E(vib)   ...       0.25
freq.     346.36  E(vib)   ...       0.23
freq.     350.13  E(vib)   ...       0.23
freq.     361.45  E(vib)   ...       0.22
freq.     371.20  E(vib)   ...       0.21
freq.     374.88  E(vib)   ...       0.21
freq.     407.38  E(vib)   ...       0.19
freq.     424.33  E(vib)   ...       0.18
freq.     468.43  E(vib)   ...       0.16
freq.     494.98  E(vib)   ...       0.14
freq.     522.18  E(vib)   ...       0.13
freq.     530.99  E(vib)   ...       0.13
freq.     554.08  E(vib)   ...       0.12
freq.     559.95  E(vib)   ...       0.12
freq.     569.57  E(vib)   ...       0.11
freq.     594.90  E(vib)   ...       0.10
freq.     607.47  E(vib)   ...       0.10
freq.     626.82  E(vib)   ...       0.09
freq.     652.48  E(vib)   ...       0.08
freq.     667.07  E(vib)   ...       0.08
freq.     698.74  E(vib)   ...       0.07
freq.     717.87  E(vib)   ...       0.07
freq.     758.32  E(vib)   ...       0.06
freq.     771.27  E(vib)   ...       0.05
freq.     872.00  E(vib)   ...       0.04
freq.     988.38  E(vib)   ...       0.02
freq.    1036.07  E(vib)   ...       0.02
freq.    1085.98  E(vib)   ...       0.02
freq.    1107.90  E(vib)   ...       0.02
freq.    1116.03  E(vib)   ...       0.01
freq.    1126.66  E(vib)   ...       0.01
freq.    1137.24  E(vib)   ...       0.01
freq.    1143.94  E(vib)   ...       0.01
freq.    1154.68  E(vib)   ...       0.01
freq.    1156.67  E(vib)   ...       0.01
freq.    1164.65  E(vib)   ...       0.01
freq.    1182.09  E(vib)   ...       0.01
freq.    1186.57  E(vib)   ...       0.01
freq.    1202.29  E(vib)   ...       0.01
freq.    1235.35  E(vib)   ...       0.01
freq.    1271.23  E(vib)   ...       0.01
freq.    1311.74  E(vib)   ...       0.01
freq.    1332.32  E(vib)   ...       0.01
freq.    1365.97  E(vib)   ...       0.01
freq.    1407.71  E(vib)   ...       0.00
freq.    1824.18  E(vib)   ...       0.00
freq.    3613.73  E(vib)   ...       0.00

------------
INNER ENERGY
------------

The inner energy is: U= E(el) + E(ZPE) + E(vib) + E(rot) + E(trans)
    E(el)   - is the total energy from the electronic structure calculation
              = E(kin-el) + E(nuc-el) + E(el-el) + E(nuc-nuc)
    E(ZPE)  - the the zero temperature vibrational energy from the frequency calculation
    E(vib)  - the the finite temperature correction to E(ZPE) due to population
              of excited vibrational states
    E(rot)  - is the rotational thermal energy
    E(trans)- is the translational thermal energy

Summary of contributions to the inner energy U:
Electronic energy                ...  -1853.73495722 Eh
Zero point energy                ...      0.10509592 Eh      65.95 kcal/mol
Thermal vibrational correction   ...      0.02012145 Eh      12.63 kcal/mol
Thermal rotational correction    ...      0.00141627 Eh       0.89 kcal/mol
Thermal translational correction ...      0.00141627 Eh       0.89 kcal/mol
-----------------------------------------------------------------------
Total thermal energy                  -1853.60690730 Eh

Summary of corrections to the electronic energy:
(perhaps to be used in another calculation)
Total thermal correction                  0.02295400 Eh      14.40 kcal/mol
Non-thermal (ZPE) correction              0.10509592 Eh      65.95 kcal/mol
-----------------------------------------------------------------------
Total correction                          0.12804991 Eh      80.35 kcal/mol

--------
ENTHALPY
--------

The enthalpy is H = U + kB*T
                kB is Boltzmann's constant
Total thermal energy              ...  -1853.60690730 Eh
Thermal Enthalpy correction       ...      0.00094421 Eh       0.59 kcal/mol
-----------------------------------------------------------------------
Total Enthalpy                    ...  -1853.60596309 Eh

Note: Only C1 symmetry has been detected, increase convergence thresholds
      if your molecule has a higher symmetry. Symmetry factor of 1.0 is
      used for the rotational entropy correction.

Note: Rotational entropy computed according to Herzberg
Infrared and Raman Spectra, Chapter V,1, Van Nostrand Reinhold, 1945
Point Group:  C1, Symmetry Number:   1
Rotational constants in cm-1:     0.020376     0.004060     0.003979

Vibrational entropy computed according to the QRRHO of S. Grimme
Chem.Eur.J. 2012 18 9955 using a reference frequency of 100.0 cm-1

-------
ENTROPY
-------

The entropy contributions are T*S = T*(S(el)+S(vib)+S(rot)+S(trans))
     S(el)   - electronic entropy
     S(vib)  - vibrational entropy
     S(rot)  - rotational entropy
     S(trans)- translational entropy
The entropies will be listed as multiplied by the temperature to get
units of energy

Electronic entropy                ...      0.00065446 Eh      0.41 kcal/mol
Vibrational entropy               ...      0.03624363 Eh     22.74 kcal/mol

                             ****ORCA TERMINATED NORMALLY****
TOTAL RUN TIME: 0 days 0 hours 19 minutes 50 seconds 472 msec
