                         Program Version 5.0.3 -  RELEASE  -
|  1> !B3LYP def2-TZVP opt d3 TightSCF SlowConv defgrid2
|  2>
|  3> %pal
|  4> nprocs 20
|  5> end
|  6>
|  7> %scf
|  8> MaxIter 1500
|  9> end
| 10>
| 11> %maxcore 8000
| 12>
| 13> !CPCM
| 14> %cpcm smd true
| 15> SMDsolvent "ACETONITRILE"
| 16> end
| 17>
| 18> * xyz -1 2
| 19> 6        4.790427000     -0.033865800     -0.529943200
| 20> 8        5.449345000     -1.206924000     -0.894594600
| 21> 8        4.978223000      1.323071000     -0.737377200
| 22> 6        3.506687600     -0.338741600      0.376153800
| 23> 6        2.222300000      0.400524800     -0.110681600
| 24> 6        0.900506800     -0.386389800      0.175703000
| 25> 6       -0.395261200      0.487294000      0.065549000
| 26> 6       -1.705693600     -0.364773800     -0.068373600
| 27> 6       -3.005136200      0.445344800      0.258164000
| 28> 6       -4.319880200     -0.214526000     -0.270540800
| 29> 9        3.211587400     -1.692050400      0.412735200
| 30> 9        3.741061800      0.055285800      1.689948800
| 31> 9        2.125696800      1.616867800      0.483236600
| 32> 9        0.794028800     -1.413561400     -0.700839000
| 33> 9        0.958350600     -0.884509000      1.435093400
| 34> 9       -0.498373400      1.260265600      1.173340200
| 35> 9       -0.299075000      1.289512600     -1.020910800
| 36> 9       -1.641790400     -1.418189000      0.779523800
| 37> 9       -1.792381400     -0.831391600     -1.336863600
| 38> 9       -2.918792200      1.679227200     -0.295171200
| 39> 9       -3.119771000      0.573779800      1.598579800
| 40> 9       -4.383115600     -1.504377600      0.089127600
| 41> 9       -5.365669800      0.430528600      0.260394200
| 42> 9       -4.396020400     -0.128550600     -1.602941800
| 43> *
| 44>
| 45>                          ****END OF INPUT****
 Total Charge           Charge          ....   -1
 Multiplicity           Mult            ....    2
 Number of Electrons    NEL             ....  191
Dispersion correction           -0.041584969
FINAL SINGLE POINT ENERGY     -1853.219167190756
Dispersion correction            ... done
Dispersion correction           -0.041779457
FINAL SINGLE POINT ENERGY     -1853.264187530687
Dispersion correction            ... done
Dispersion correction           -0.041899083
FINAL SINGLE POINT ENERGY     -1853.272655677370
Dispersion correction            ... done
FINAL SINGLE POINT ENERGY     -1853.277165879576
FINAL SINGLE POINT ENERGY     -1853.277217703832
FINAL SINGLE POINT ENERGY     -1853.279283106159
FINAL SINGLE POINT ENERGY     -1853.279870663655
FINAL SINGLE POINT ENERGY     -1853.280317484790
FINAL SINGLE POINT ENERGY     -1853.280534346035
FINAL SINGLE POINT ENERGY     -1853.280807337036
FINAL SINGLE POINT ENERGY     -1853.282383027451
FINAL SINGLE POINT ENERGY     -1853.282412308188
FINAL SINGLE POINT ENERGY     -1853.282411707193
FINAL SINGLE POINT ENERGY     -1853.282400693599
FINAL SINGLE POINT ENERGY     -1853.282350596442
FINAL SINGLE POINT ENERGY     -1853.282393299573
FINAL SINGLE POINT ENERGY     -1853.282401092563
Dispersion correction            ... done
Dispersion correction           -0.042474608
FINAL SINGLE POINT ENERGY     -1853.282395831742
Dispersion correction            ... done
Dispersion correction           -0.042481515
FINAL SINGLE POINT ENERGY     -1853.282400322355
Dispersion correction            ... done
                    ***********************HURRAY********************

CARTESIAN COORDINATES (ANGSTROEM)
---------------------------------
  C      3.629983    0.031752   -1.195225
  O      3.863902   -0.940697   -1.921124
  O      3.456448    1.236143   -1.443608
  C      3.535847   -0.277889    0.364914
  C      2.262748    0.167014    0.999997
  C      0.948265   -0.523361    0.912678
  C     -0.233673    0.399199    0.450761
  C     -1.517775   -0.386084   -0.001730
  C     -2.819378    0.480988    0.045281
  C     -4.037156   -0.134552   -0.717477
  F      3.717344   -1.611634    0.630475
  F      4.571336    0.383722    0.991652
  F      2.220813    1.405602    1.487812
  F      1.031664   -1.568656    0.052443
  F      0.588842   -1.031041    2.139099
  F     -0.554965    1.229459    1.465671
  F      0.180692    1.145216   -0.592767
  F     -1.706470   -1.458568    0.792306
  F     -1.327112   -0.818372   -1.265240
  F     -2.572983    1.692319   -0.494048
  F     -3.188250    0.639918    1.330632
  F     -4.253705   -1.392372   -0.326617
  F     -5.123139    0.592618   -0.442020
  F     -3.836024   -0.116875   -2.034553

 Multiplicity           Mult            ....    2
 Number of Electrons    NEL             ....  191
 Basis Dimension        Dim             ....  744

ORBITAL ENERGIES
----------------
                 SPIN UP ORBITALS
  NO   OCC          E(Eh)            E(eV)
   0   1.0000     -24.744231      -673.3248
   1   1.0000     -24.743375      -673.3015
   2   1.0000     -24.742836      -673.2868
   3   1.0000     -24.742470      -673.2768
   4   1.0000     -24.741196      -673.2422
   5   1.0000     -24.740708      -673.2289
   6   1.0000     -24.740562      -673.2249
   7   1.0000     -24.736763      -673.1215
   8   1.0000     -24.735525      -673.0878
   9   1.0000     -24.732066      -672.9937
  10   1.0000     -24.729440      -672.9223
  11   1.0000     -24.718215      -672.6168
  12   1.0000     -24.692294      -671.9115
  13   1.0000     -24.690293      -671.8570
  14   1.0000     -19.066375      -518.8224
  15   1.0000     -19.062099      -518.7061
  16   1.0000     -10.460515      -284.6451
  17   1.0000     -10.405836      -283.1572
  18   1.0000     -10.405666      -283.1526
  19   1.0000     -10.399176      -282.9760
  20   1.0000     -10.390692      -282.7451
  21   1.0000     -10.340685      -281.3843
  22   1.0000     -10.294782      -280.1353
  23   1.0000     -10.254975      -279.0521
  24   1.0000      -1.352866       -36.8133
  25   1.0000      -1.326005       -36.0824
  26   1.0000      -1.309273       -35.6271
  27   1.0000      -1.304241       -35.4902
  28   1.0000      -1.290722       -35.1223
  29   1.0000      -1.271715       -34.6051
  30   1.0000      -1.265851       -34.4455
  31   1.0000      -1.259599       -34.2754
  32   1.0000      -1.257327       -34.2136
  33   1.0000      -1.252133       -34.0723
  34   1.0000      -1.250365       -34.0242
  35   1.0000      -1.246084       -33.9077
  36   1.0000      -1.231021       -33.4978
  37   1.0000      -1.197054       -32.5735
  38   1.0000      -1.027311       -27.9546
  39   1.0000      -0.945781       -25.7360
  40   1.0000      -0.845379       -23.0039
  41   1.0000      -0.828914       -22.5559
  42   1.0000      -0.795936       -21.6585
  43   1.0000      -0.753245       -20.4968
  44   1.0000      -0.713064       -19.4034
  45   1.0000      -0.686374       -18.6772
  46   1.0000      -0.658654       -17.9229
  47   1.0000      -0.647618       -17.6226
  48   1.0000      -0.642338       -17.4789
  49   1.0000      -0.636947       -17.3322
  50   1.0000      -0.624230       -16.9862
  51   1.0000      -0.618923       -16.8418
  52   1.0000      -0.617644       -16.8069
  53   1.0000      -0.604460       -16.4482
  54   1.0000      -0.601700       -16.3731
  55   1.0000      -0.589385       -16.0380
  56   1.0000      -0.586787       -15.9673
  57   1.0000      -0.578347       -15.7376
  58   1.0000      -0.574850       -15.6425
  59   1.0000      -0.561087       -15.2680
  60   1.0000      -0.542723       -14.7682
  61   1.0000      -0.516057       -14.0426
  62   1.0000      -0.512754       -13.9527
  63   1.0000      -0.509695       -13.8695
  64   1.0000      -0.504436       -13.7264
  65   1.0000      -0.498688       -13.5700
  66   1.0000      -0.497393       -13.5348
  67   1.0000      -0.491527       -13.3751
  68   1.0000      -0.485399       -13.2084
  69   1.0000      -0.482172       -13.1206
  70   1.0000      -0.475114       -12.9285
  71   1.0000      -0.472164       -12.8482
  72   1.0000      -0.469605       -12.7786
  73   1.0000      -0.462575       -12.5873
  74   1.0000      -0.459075       -12.4921
  75   1.0000      -0.454666       -12.3721
  76   1.0000      -0.451749       -12.2927
  77   1.0000      -0.450390       -12.2557
  78   1.0000      -0.444208       -12.0875
  79   1.0000      -0.442197       -12.0328
  80   1.0000      -0.441569       -12.0157
  81   1.0000      -0.440869       -11.9966
  82   1.0000      -0.433977       -11.8091
  83   1.0000      -0.431870       -11.7518
  84   1.0000      -0.430101       -11.7036
  85   1.0000      -0.422841       -11.5061
  86   1.0000      -0.408460       -11.1148
  87   1.0000      -0.403313       -10.9747
  88   1.0000      -0.398975       -10.8567
  89   1.0000      -0.386214       -10.5094
  90   1.0000      -0.378394       -10.2966
  91   1.0000      -0.349140        -9.5006
  92   1.0000      -0.267102        -7.2682
  93   1.0000      -0.253079        -6.8866
  94   1.0000      -0.240201        -6.5362
  95   1.0000      -0.220874        -6.0103
  96   0.0000      -0.005002        -0.1361
  97   0.0000       0.013965         0.3800
  98   0.0000       0.036756         1.0002
  99   0.0000       0.053891         1.4664
 100   0.0000       0.067802         1.8450

                 SPIN DOWN ORBITALS
  NO   OCC          E(Eh)            E(eV)
   0   1.0000     -24.744231      -673.3248
   1   1.0000     -24.743375      -673.3015
   2   1.0000     -24.742836      -673.2868
   3   1.0000     -24.742465      -673.2767
   4   1.0000     -24.741194      -673.2421
   5   1.0000     -24.740701      -673.2287
   6   1.0000     -24.740560      -673.2249
   7   1.0000     -24.736670      -673.1190
   8   1.0000     -24.735494      -673.0870
   9   1.0000     -24.729211      -672.9160
  10   1.0000     -24.728101      -672.8858
  11   1.0000     -24.716673      -672.5749
  12   1.0000     -24.691939      -671.9018
  13   1.0000     -24.689693      -671.8407
  14   1.0000     -19.065272      -518.7924
  15   1.0000     -19.061619      -518.6930
  16   1.0000     -10.460507      -284.6449
  17   1.0000     -10.405800      -283.1562
  18   1.0000     -10.405629      -283.1515
  19   1.0000     -10.398782      -282.9653
  20   1.0000     -10.391348      -282.7630
  21   1.0000     -10.341204      -281.3985
  22   1.0000     -10.281000      -279.7602
  23   1.0000     -10.254397      -279.0363
  24   1.0000      -1.352859       -36.8132
  25   1.0000      -1.325834       -36.0778
  26   1.0000      -1.309023       -35.6203
  27   1.0000      -1.304078       -35.4858
  28   1.0000      -1.289254       -35.0824
  29   1.0000      -1.265843       -34.4453
  30   1.0000      -1.264279       -34.4028
  31   1.0000      -1.259592       -34.2752
  32   1.0000      -1.257257       -34.2117
  33   1.0000      -1.250484       -34.0274
  34   1.0000      -1.249719       -34.0066
  35   1.0000      -1.245915       -33.9031
  36   1.0000      -1.228633       -33.4328
  37   1.0000      -1.195854       -32.5409
  38   1.0000      -1.025656       -27.9095
  39   1.0000      -0.943971       -25.6868
  40   1.0000      -0.843528       -22.9536
  41   1.0000      -0.820763       -22.3341
  42   1.0000      -0.788352       -21.4522
  43   1.0000      -0.749876       -20.4052
  44   1.0000      -0.711692       -19.3661
  45   1.0000      -0.685169       -18.6444
  46   1.0000      -0.654369       -17.8063
  47   1.0000      -0.646864       -17.6021
  48   1.0000      -0.640387       -17.4258
  49   1.0000      -0.636818       -17.3287
  50   1.0000      -0.623670       -16.9709
  51   1.0000      -0.617806       -16.8113
  52   1.0000      -0.615879       -16.7589
  53   1.0000      -0.603716       -16.4280
  54   1.0000      -0.599589       -16.3156
  55   1.0000      -0.587611       -15.9897
  56   1.0000      -0.583835       -15.8870
  57   1.0000      -0.575838       -15.6693
  58   1.0000      -0.569968       -15.5096
  59   1.0000      -0.558415       -15.1952
  60   1.0000      -0.541208       -14.7270
  61   1.0000      -0.515856       -14.0372
  62   1.0000      -0.509759       -13.8712
  63   1.0000      -0.506189       -13.7741
  64   1.0000      -0.500883       -13.6297
  65   1.0000      -0.498519       -13.5654
  66   1.0000      -0.491629       -13.3779
  67   1.0000      -0.485051       -13.1989
  68   1.0000      -0.483180       -13.1480
  69   1.0000      -0.480320       -13.0702
  70   1.0000      -0.472634       -12.8610
  71   1.0000      -0.470411       -12.8005
  72   1.0000      -0.468836       -12.7577
  73   1.0000      -0.462504       -12.5854
  74   1.0000      -0.457676       -12.4540
  75   1.0000      -0.453298       -12.3349
  76   1.0000      -0.451617       -12.2891
  77   1.0000      -0.449973       -12.2444
  78   1.0000      -0.443889       -12.0788
  79   1.0000      -0.441970       -12.0266
  80   1.0000      -0.440803       -11.9949
  81   1.0000      -0.436566       -11.8796
  82   1.0000      -0.432717       -11.7748
  83   1.0000      -0.430964       -11.7271
  84   1.0000      -0.429297       -11.6818
  85   1.0000      -0.421349       -11.4655
  86   1.0000      -0.407582       -11.0909
  87   1.0000      -0.401463       -10.9244
  88   1.0000      -0.396910       -10.8005
  89   1.0000      -0.384572       -10.4647
  90   1.0000      -0.375556       -10.2194
  91   1.0000      -0.346744        -9.4354
  92   1.0000      -0.252276        -6.8648
  93   1.0000      -0.240405        -6.5417
  94   1.0000      -0.238490        -6.4896
  95   0.0000      -0.102179        -2.7804
  96   0.0000      -0.003336        -0.0908
  97   0.0000       0.015375         0.4184
  98   0.0000       0.041046         1.1169
  99   0.0000       0.056731         1.5437

MULLIKEN ATOMIC CHARGES AND SPIN POPULATIONS
--------------------------------------------
   0 C :    0.148916    0.019796
   1 O :   -0.463008    0.035950
   2 O :   -0.486439    0.017469
   3 C :    0.370064   -0.022664
   4 C :    0.091808    0.806982
   5 C :    0.371349    0.009142
   6 C :    0.328298    0.007473
   7 C :    0.311984    0.002608
   8 C :    0.325103    0.000706
   9 C :    0.475369    0.000285
  10 F :   -0.216656    0.009715
  11 F :   -0.224079    0.006016
  12 F :   -0.174689    0.073014
  13 F :   -0.185947    0.003973
  14 F :   -0.193730    0.026700
  15 F :   -0.175067    0.001650
  16 F :   -0.172909    0.000931
  17 F :   -0.168877   -0.000043
  18 F :   -0.169423    0.000164
  19 F :   -0.166647    0.000005
  20 F :   -0.163981    0.000041
  21 F :   -0.155080   -0.000006
  22 F :   -0.153592    0.000085
  23 F :   -0.152765    0.000007
Sum of atomic charges         :   -1.0000000

LOEWDIN ATOMIC CHARGES AND SPIN POPULATIONS
-------------------------------------------
   0 C :   -0.680351    0.024342
   1 O :   -0.039495    0.033705
   2 O :   -0.054149    0.015660
   3 C :   -0.455314    0.058731
   4 C :   -0.184703    0.622121
   5 C :   -0.465170    0.072296
   6 C :   -0.448563    0.012183
   7 C :   -0.455979    0.002782
   8 C :   -0.463194    0.000844
   9 C :   -0.663375    0.000238
  10 F :    0.149890    0.011881
  11 F :    0.140568    0.006758
  12 F :    0.230905    0.098166
  13 F :    0.212052    0.005544
  14 F :    0.171530    0.031215
  15 F :    0.217211    0.002309
  16 F :    0.222839    0.000755
  17 F :    0.223279    0.000070
  18 F :    0.221080    0.000227
  19 F :    0.222274   -0.000000
  20 F :    0.222891    0.000066
  21 F :    0.225131   -0.000004
  22 F :    0.223709    0.000099
  23 F :    0.226936    0.000008

  Mayer bond orders larger than 0.100000
B(  0-C ,  1-O ) :   1.8831 B(  0-C ,  2-O ) :   1.8508 B(  0-C ,  3-C ) :   0.8437
B(  3-C ,  4-C ) :   1.0180 B(  3-C , 10-F ) :   1.0537 B(  3-C , 11-F ) :   1.0123
B(  4-C ,  5-C ) :   1.0531 B(  4-C , 12-F ) :   1.0799 B(  5-C ,  6-C ) :   0.9178
B(  5-C , 13-F ) :   1.0549 B(  5-C , 14-F ) :   1.0436 B(  6-C ,  7-C ) :   0.9205
B(  6-C , 15-F ) :   1.0689 B(  6-C , 16-F ) :   1.0807 B(  7-C ,  8-C ) :   0.9196
B(  7-C , 17-F ) :   1.0829 B(  7-C , 18-F ) :   1.0906 B(  8-C ,  9-C ) :   0.9692
B(  8-C , 19-F ) :   1.0855 B(  8-C , 20-F ) :   1.0933 B(  9-C , 21-F ) :   1.1457
B(  9-C , 22-F ) :   1.1462 B(  9-C , 23-F ) :   1.1564

Dispersion correction           -0.042485554
FINAL SINGLE POINT ENERGY     -1853.282399149063

DIPOLE MOMENT
-------------
                                X             Y             Z
Electronic contribution:    -14.46537      -0.44888       4.87469
Nuclear contribution   :      7.75464       0.33873      -2.60895
                        -----------------------------------------
Total Dipole Moment    :     -6.71074      -0.11014       2.26573
                        -----------------------------------------
Magnitude (a.u.)       :      7.08376
Magnitude (Debye)      :     18.00549

Rotational constants in cm-1:     0.018521     0.004358     0.004267
Rotational constants in MHz :   555.258511   130.652391   127.915414

                             ****ORCA TERMINATED NORMALLY****
TOTAL RUN TIME: 0 days 1 hours 12 minutes 46 seconds 330 msec
