                         Program Version 6.0.1  -  RELEASE   -
|  1> !r2scanh def2-TZVP freq d3 TightSCF SlowConv defgrid2
|  2>
|  3> %pal
|  4> nprocs 20
|  5> end
|  6>
|  7> %scf
|  8> MaxIter 1500
|  9> end
| 10>
| 11> %maxcore 8000
| 12>
| 13> !CPCM
| 14> %cpcm smd true
| 15> SMDsolvent "ACETONITRILE"
| 16> end
| 17>
| 18> * xyz 0 2
| 19> 6        4.718854000     -0.147405000     -0.307729000
| 20> 8        5.630143000     -1.091091000     -0.078983000
| 21> 8        4.951017000      1.014875000     -0.547549000
| 22> 6        3.364950000     -0.669324000     -0.243942000
| 23> 6        2.154015000      0.178475000     -0.494573000
| 24> 6        0.830153000     -0.536286000     -0.101369000
| 25> 6       -0.406138000      0.415079000     -0.068472000
| 26> 6       -1.758281000     -0.360818000     -0.118274000
| 27> 6       -2.961098000      0.494638000      0.377349000
| 28> 6       -4.343544000     -0.059632000     -0.064329000
| 29> 9        3.173140000     -1.963038000     -0.108938000
| 30> 9        2.227095000      1.326425000      0.210565000
| 31> 9        2.087055000      0.511840000     -1.806752000
| 32> 9        0.597538000     -1.524789000     -0.980162000
| 33> 9        0.977806000     -1.061834000      1.124939000
| 34> 9       -0.363188000      1.134015000      1.063289000
| 35> 9       -0.361445000      1.251285000     -1.114387000
| 36> 9       -1.672899000     -1.453176000      0.655877000
| 37> 9       -1.986932000     -0.744088000     -1.382939000
| 38> 9       -2.851943000      1.745292000     -0.097054000
| 39> 9       -2.943230000      0.531065000      1.715596000
| 40> 9       -4.426480000     -1.359687000      0.197246000
| 41> 9       -5.294018000      0.575974000      0.610002000
| 42> 9       -4.539689000      0.136638000     -1.360282000
| 43> 1        6.510585000     -0.680942000     -0.141251000
| 44> *
| 45>
| 46>                          ****END OF INPUT****

CARTESIAN COORDINATES (ANGSTROEM)
---------------------------------
  C      4.718854   -0.147405   -0.307729
  O      5.630143   -1.091091   -0.078983
  O      4.951017    1.014875   -0.547549
  C      3.364950   -0.669324   -0.243942
  C      2.154015    0.178475   -0.494573
  C      0.830153   -0.536286   -0.101369
  C     -0.406138    0.415079   -0.068472
  C     -1.758281   -0.360818   -0.118274
  C     -2.961098    0.494638    0.377349
  C     -4.343544   -0.059632   -0.064329
  F      3.173140   -1.963038   -0.108938
  F      2.227095    1.326425    0.210565
  F      2.087055    0.511840   -1.806752
  F      0.597538   -1.524789   -0.980162
  F      0.977806   -1.061834    1.124939
  F     -0.363188    1.134015    1.063289
  F     -0.361445    1.251285   -1.114387
  F     -1.672899   -1.453176    0.655877
  F     -1.986932   -0.744088   -1.382939
  F     -2.851943    1.745292   -0.097054
  F     -2.943230    0.531065    1.715596
  F     -4.426480   -1.359687    0.197246
  F     -5.294018    0.575974    0.610002
  F     -4.539689    0.136638   -1.360282
  H      6.510585   -0.680942   -0.141251

 Total Charge           Charge          ....    0
 Multiplicity           Mult            ....    2
 Number of Electrons    NEL             ....  191
 Basis Dimension        Dim             ....  750

ORBITAL ENERGIES
----------------
                 SPIN UP ORBITALS
  NO   OCC          E(Eh)            E(eV)
   0   1.0000     -24.742472      -673.2769
   1   1.0000     -24.734819      -673.0687
   2   1.0000     -24.734791      -673.0679
   3   1.0000     -24.734137      -673.0501
   4   1.0000     -24.734055      -673.0479
   5   1.0000     -24.733565      -673.0345
   6   1.0000     -24.733498      -673.0327
   7   1.0000     -24.733024      -673.0198
   8   1.0000     -24.732935      -673.0174
   9   1.0000     -24.732595      -673.0081
  10   1.0000     -24.732306      -673.0003
  11   1.0000     -24.731689      -672.9835
  12   1.0000     -24.723035      -672.7480
  13   1.0000     -24.720267      -672.6727
  14   1.0000     -19.182466      -521.9814
  15   1.0000     -19.130797      -520.5755
  16   1.0000     -10.441971      -284.1405
  17   1.0000     -10.390341      -282.7356
  18   1.0000     -10.389820      -282.7214
  19   1.0000     -10.387761      -282.6653
  20   1.0000     -10.386585      -282.6333
  21   1.0000     -10.383046      -282.5370
  22   1.0000     -10.315934      -280.7108
  23   1.0000     -10.308683      -280.5135
  24   1.0000      -1.363684       -37.1077
  25   1.0000      -1.343381       -36.5553
  26   1.0000      -1.328460       -36.1492
  27   1.0000      -1.317704       -35.8565
  28   1.0000      -1.317437       -35.8493
  29   1.0000      -1.308215       -35.5983
  30   1.0000      -1.300850       -35.3979
  31   1.0000      -1.276382       -34.7321
  32   1.0000      -1.271155       -34.5899
  33   1.0000      -1.268619       -34.5209
  34   1.0000      -1.264672       -34.4135
  35   1.0000      -1.259728       -34.2789
  36   1.0000      -1.258505       -34.2457
  37   1.0000      -1.248769       -33.9807
  38   1.0000      -1.138630       -30.9837
  39   1.0000      -1.052173       -28.6311
  40   1.0000      -0.852745       -23.2044
  41   1.0000      -0.839948       -22.8561
  42   1.0000      -0.814211       -22.1558
  43   1.0000      -0.776949       -21.1418
  44   1.0000      -0.735022       -20.0010
  45   1.0000      -0.697268       -18.9736
  46   1.0000      -0.678589       -18.4654
  47   1.0000      -0.651717       -17.7341
  48   1.0000      -0.644680       -17.5426
  49   1.0000      -0.639939       -17.4136
  50   1.0000      -0.631823       -17.1928
  51   1.0000      -0.624776       -17.0010
  52   1.0000      -0.622255       -16.9324
  53   1.0000      -0.617117       -16.7926
  54   1.0000      -0.607491       -16.5307
  55   1.0000      -0.601173       -16.3588
  56   1.0000      -0.595791       -16.2123
  57   1.0000      -0.592234       -16.1155
  58   1.0000      -0.583038       -15.8653
  59   1.0000      -0.579226       -15.7615
  60   1.0000      -0.573191       -15.5973
  61   1.0000      -0.551338       -15.0027
  62   1.0000      -0.531396       -14.4600
  63   1.0000      -0.509991       -13.8776
  64   1.0000      -0.505546       -13.7566
  65   1.0000      -0.504769       -13.7355
  66   1.0000      -0.497690       -13.5428
  67   1.0000      -0.494930       -13.4677
  68   1.0000      -0.489408       -13.3175
  69   1.0000      -0.487426       -13.2635
  70   1.0000      -0.485161       -13.2019
  71   1.0000      -0.477724       -12.9995
  72   1.0000      -0.474730       -12.9181
  73   1.0000      -0.472116       -12.8469
  74   1.0000      -0.470153       -12.7935
  75   1.0000      -0.464155       -12.6303
  76   1.0000      -0.463207       -12.6045
  77   1.0000      -0.458005       -12.4629
  78   1.0000      -0.451256       -12.2793
  79   1.0000      -0.447202       -12.1690
  80   1.0000      -0.443504       -12.0683
  81   1.0000      -0.440794       -11.9946
  82   1.0000      -0.438780       -11.9398
  83   1.0000      -0.435043       -11.8381
  84   1.0000      -0.433441       -11.7945
  85   1.0000      -0.431208       -11.7338
  86   1.0000      -0.428704       -11.6656
  87   1.0000      -0.427727       -11.6391
  88   1.0000      -0.424466       -11.5503
  89   1.0000      -0.417683       -11.3657
  90   1.0000      -0.405895       -11.0450
  91   1.0000      -0.374074       -10.1791
  92   1.0000      -0.347827        -9.4648
  93   1.0000      -0.336110        -9.1460
  94   1.0000      -0.302769        -8.2388
  95   1.0000      -0.267362        -7.2753
  96   0.0000      -0.021929        -0.5967
  97   0.0000      -0.011528        -0.3137
  98   0.0000       0.003837         0.1044
  99   0.0000       0.033893         0.9223
 100   0.0000       0.044875         1.2211

                 SPIN DOWN ORBITALS
  NO   OCC          E(Eh)            E(eV)
   0   1.0000     -24.737353      -673.1376
   1   1.0000     -24.734819      -673.0686
   2   1.0000     -24.734791      -673.0679
   3   1.0000     -24.734137      -673.0501
   4   1.0000     -24.734055      -673.0479
   5   1.0000     -24.733566      -673.0345
   6   1.0000     -24.733495      -673.0326
   7   1.0000     -24.732978      -673.0185
   8   1.0000     -24.732935      -673.0174
   9   1.0000     -24.732595      -673.0081
  10   1.0000     -24.732306      -673.0003
  11   1.0000     -24.731637      -672.9821
  12   1.0000     -24.722317      -672.7284
  13   1.0000     -24.718644      -672.6285
  14   1.0000     -19.181964      -521.9678
  15   1.0000     -19.125664      -520.4358
  16   1.0000     -10.441972      -284.1405
  17   1.0000     -10.390344      -282.7356
  18   1.0000     -10.389832      -282.7217
  19   1.0000     -10.387762      -282.6654
  20   1.0000     -10.386554      -282.6325
  21   1.0000     -10.383857      -282.5591
  22   1.0000     -10.317439      -280.7518
  23   1.0000     -10.293339      -280.0960
  24   1.0000      -1.363684       -37.1077
  25   1.0000      -1.343244       -36.5515
  26   1.0000      -1.328012       -36.1370
  27   1.0000      -1.317580       -35.8532
  28   1.0000      -1.317181       -35.8423
  29   1.0000      -1.306411       -35.5493
  30   1.0000      -1.292273       -35.1645
  31   1.0000      -1.276368       -34.7317
  32   1.0000      -1.271088       -34.5881
  33   1.0000      -1.268617       -34.5208
  34   1.0000      -1.264563       -34.4105
  35   1.0000      -1.259672       -34.2774
  36   1.0000      -1.258477       -34.2449
  37   1.0000      -1.246492       -33.9188
  38   1.0000      -1.136309       -30.9205
  39   1.0000      -1.045743       -28.4561
  40   1.0000      -0.850848       -23.1527
  41   1.0000      -0.832953       -22.6658
  42   1.0000      -0.805436       -21.9170
  43   1.0000      -0.768854       -20.9216
  44   1.0000      -0.731604       -19.9079
  45   1.0000      -0.696440       -18.9511
  46   1.0000      -0.678311       -18.4578
  47   1.0000      -0.649070       -17.6621
  48   1.0000      -0.644348       -17.5336
  49   1.0000      -0.638496       -17.3744
  50   1.0000      -0.631744       -17.1906
  51   1.0000      -0.624482       -16.9930
  52   1.0000      -0.621429       -16.9099
  53   1.0000      -0.616042       -16.7633
  54   1.0000      -0.606315       -16.4987
  55   1.0000      -0.600516       -16.3409
  56   1.0000      -0.594973       -16.1900
  57   1.0000      -0.590337       -16.0639
  58   1.0000      -0.580752       -15.8031
  59   1.0000      -0.576830       -15.6964
  60   1.0000      -0.571426       -15.5493
  61   1.0000      -0.548190       -14.9170
  62   1.0000      -0.508872       -13.8471
  63   1.0000      -0.504711       -13.7339
  64   1.0000      -0.503566       -13.7027
  65   1.0000      -0.501460       -13.6454
  66   1.0000      -0.496379       -13.5072
  67   1.0000      -0.493829       -13.4378
  68   1.0000      -0.489139       -13.3102
  69   1.0000      -0.487237       -13.2584
  70   1.0000      -0.483674       -13.1614
  71   1.0000      -0.477331       -12.9888
  72   1.0000      -0.474175       -12.9030
  73   1.0000      -0.470675       -12.8077
  74   1.0000      -0.468755       -12.7555
  75   1.0000      -0.462210       -12.5774
  76   1.0000      -0.460271       -12.5246
  77   1.0000      -0.452391       -12.3102
  78   1.0000      -0.451248       -12.2791
  79   1.0000      -0.445623       -12.1260
  80   1.0000      -0.443269       -12.0620
  81   1.0000      -0.440739       -11.9931
  82   1.0000      -0.438639       -11.9360
  83   1.0000      -0.434508       -11.8236
  84   1.0000      -0.433299       -11.7907
  85   1.0000      -0.428732       -11.6664
  86   1.0000      -0.427576       -11.6349
  87   1.0000      -0.426557       -11.6072
  88   1.0000      -0.423280       -11.5180
  89   1.0000      -0.414618       -11.2823
  90   1.0000      -0.404329       -11.0024
  91   1.0000      -0.372466       -10.1353
  92   1.0000      -0.334988        -9.1155
  93   1.0000      -0.332000        -9.0342
  94   1.0000      -0.297088        -8.0842
  95   0.0000      -0.143559        -3.9064
  96   0.0000      -0.021285        -0.5792
  97   0.0000      -0.004555        -0.1240
  98   0.0000       0.013986         0.3806
  99   0.0000       0.036821         1.0019

MULLIKEN ATOMIC CHARGES AND SPIN POPULATIONS
--------------------------------------------
   0 C :    0.301791   -0.070751
   1 O :   -0.392157    0.017122
   2 O :   -0.360937    0.161282
   3 C :    0.172786    0.783283
   4 C :    0.392330   -0.015440
   5 C :    0.329087   -0.005575
   6 C :    0.327038    0.000058
   7 C :    0.299300   -0.000101
   8 C :    0.330990   -0.000015
   9 C :    0.470911   -0.000007
  10 F :   -0.143914    0.092974
  11 F :   -0.169600    0.010949
  12 F :   -0.175002    0.027469
  13 F :   -0.166541    0.000807
  14 F :   -0.165279    0.000682
  15 F :   -0.162335   -0.000002
  16 F :   -0.161261   -0.000005
  17 F :   -0.162832    0.000009
  18 F :   -0.162491    0.000001
  19 F :   -0.162595   -0.000001
  20 F :   -0.159195    0.000000
  21 F :   -0.155757    0.000000
  22 F :   -0.152840   -0.000003
  23 F :   -0.153671   -0.000000
  24 H :    0.382175   -0.002736
Sum of atomic charges         :   -0.0000000

LOEWDIN ATOMIC CHARGES AND SPIN POPULATIONS
-------------------------------------------
   0 C :   -0.523646    0.050290
   1 O :    0.134165    0.014237
   2 O :    0.105760    0.134565
   3 C :   -0.154012    0.602513
   4 C :   -0.473068    0.047024
   5 C :   -0.464655    0.000307
   6 C :   -0.471037   -0.000246
   7 C :   -0.472366   -0.000065
   8 C :   -0.478610   -0.000019
   9 C :   -0.679922   -0.000006
  10 F :    0.267579    0.106835
  11 F :    0.220682    0.013587
  12 F :    0.205558    0.029721
  13 F :    0.230499    0.001020
  14 F :    0.231570    0.001082
  15 F :    0.232700   -0.000001
  16 F :    0.234758    0.000074
  17 F :    0.233224    0.000012
  18 F :    0.233306    0.000008
  19 F :    0.230659    0.000002
  20 F :    0.232733    0.000000
  21 F :    0.231114    0.000001
  22 F :    0.232393   -0.000003
  23 F :    0.233723    0.000000
  24 H :    0.226894   -0.000937

  Mayer bond orders larger than 0.100000
B(  0-C ,  1-O ) :   1.2736 B(  0-C ,  2-O ) :   1.9471 B(  0-C ,  3-C ) :   1.1214
B(  1-O , 24-H ) :   0.8254 B(  3-C ,  4-C ) :   1.0127 B(  3-C , 10-F ) :   1.0960
B(  4-C ,  5-C ) :   0.9338 B(  4-C , 11-F ) :   1.0519 B(  4-C , 12-F ) :   1.0614
B(  5-C ,  6-C ) :   0.9419 B(  5-C , 13-F ) :   1.0695 B(  5-C , 14-F ) :   1.0850
B(  6-C ,  7-C ) :   0.9286 B(  6-C , 15-F ) :   1.0872 B(  6-C , 16-F ) :   1.0885
B(  7-C ,  8-C ) :   0.9344 B(  7-C , 17-F ) :   1.0810 B(  7-C , 18-F ) :   1.0905
B(  8-C ,  9-C ) :   0.9528 B(  8-C , 19-F ) :   1.0826 B(  8-C , 20-F ) :   1.0982
B(  9-C , 21-F ) :   1.1283 B(  9-C , 22-F ) :   1.1342 B(  9-C , 23-F ) :   1.1430

Dispersion correction           -0.008225522
FINAL SINGLE POINT ENERGY     -1853.576956856282

DIPOLE MOMENT
-------------

Method             : SCF
Type of density    : Electron Density
Multiplicity       :   2
Irrep              :   0
Energy             : -1853.5687313345626990 Eh
Relativity type    :
Basis              : AO
                                X                 Y                 Z
Electronic contribution:    -16.669511101      -0.112968661       0.559038750
Nuclear contribution   :     17.562343580      -0.635662942      -0.378752682
                        -----------------------------------------
Total Dipole Moment    :      0.892832479      -0.748631603       0.180286067
                        -----------------------------------------
Magnitude (a.u.)       :      1.179025945
Magnitude (Debye)      :      2.996845789

VIBRATIONAL FREQUENCIES
-----------------------

Scaling factor for frequencies =  1.000000000  (already applied!)

     0:       0.00 cm**-1
     1:       0.00 cm**-1
     2:       0.00 cm**-1
     3:       0.00 cm**-1
     4:       0.00 cm**-1
     5:       0.00 cm**-1
     6:      21.83 cm**-1
     7:      35.00 cm**-1
     8:      39.29 cm**-1
     9:      49.90 cm**-1
    10:      57.20 cm**-1
    11:      70.24 cm**-1
    12:      71.22 cm**-1
    13:      99.96 cm**-1
    14:     116.44 cm**-1
    15:     139.39 cm**-1
    16:     167.60 cm**-1
    17:     171.20 cm**-1
    18:     195.98 cm**-1
    19:     206.79 cm**-1
    20:     211.77 cm**-1
    21:     225.22 cm**-1
    22:     236.33 cm**-1
    23:     251.05 cm**-1
    24:     258.10 cm**-1
    25:     288.19 cm**-1
    26:     305.56 cm**-1
    27:     318.77 cm**-1
    28:     323.32 cm**-1
    29:     340.21 cm**-1
    30:     359.47 cm**-1
    31:     371.37 cm**-1
    32:     372.90 cm**-1
    33:     380.36 cm**-1
    34:     384.97 cm**-1
    35:     425.51 cm**-1
    36:     480.04 cm**-1
    37:     523.16 cm**-1
    38:     535.58 cm**-1
    39:     537.61 cm**-1
    40:     559.23 cm**-1
    41:     570.67 cm**-1
    42:     577.04 cm**-1
    43:     595.00 cm**-1
    44:     614.53 cm**-1
    45:     636.16 cm**-1
    46:     657.90 cm**-1
    47:     703.36 cm**-1
    48:     711.27 cm**-1
    49:     722.41 cm**-1
    50:     734.86 cm**-1
    51:     768.85 cm**-1
    52:     881.53 cm**-1
    53:    1028.07 cm**-1
    54:    1088.41 cm**-1
    55:    1118.87 cm**-1
    56:    1135.93 cm**-1
    57:    1152.98 cm**-1
    58:    1157.81 cm**-1
    59:    1168.97 cm**-1
    60:    1176.07 cm**-1
    61:    1180.77 cm**-1
    62:    1188.27 cm**-1
    63:    1193.27 cm**-1
    64:    1211.13 cm**-1
    65:    1212.48 cm**-1
    66:    1246.46 cm**-1
    67:    1268.89 cm**-1
    68:    1301.65 cm**-1
    69:    1315.18 cm**-1
    70:    1360.41 cm**-1
    71:    1381.99 cm**-1
    72:    1473.30 cm**-1
    73:    1746.33 cm**-1
    74:    3679.50 cm**-1

IR SPECTRUM
-----------

 Mode   freq       eps      Int      T**2         TX        TY        TZ
       cm**-1   L/(mol*cm) km/mol    a.u.
----------------------------------------------------------------------------
  6:     21.83   0.000016    0.08  0.000228  ( 0.005965 -0.004418 -0.013133)
  7:     35.00   0.000175    0.89  0.001564  ( 0.008716  0.013412  0.036170)
  8:     39.29   0.000038    0.19  0.000301  (-0.006395 -0.008538  0.013693)
  9:     49.90   0.000017    0.09  0.000107  (-0.009558  0.003199 -0.002347)
 10:     57.20   0.000067    0.34  0.000366  (-0.002402  0.006269  0.017911)
 11:     70.24   0.000031    0.16  0.000139  (-0.005824  0.000616  0.010255)
 12:     71.22   0.000132    0.67  0.000578  ( 0.000115  0.004089  0.023691)
 13:     99.96   0.000020    0.10  0.000063  (-0.003041  0.004654 -0.005635)
 14:    116.44   0.000179    0.90  0.000479  ( 0.014750  0.015634  0.004131)
 15:    139.39   0.000022    0.11  0.000049  (-0.000097  0.005102  0.004832)
 16:    167.60   0.000196    0.99  0.000366  ( 0.007525  0.000663 -0.017563)
 17:    171.20   0.001263    6.38  0.002302  (-0.008809 -0.009501 -0.046195)
 18:    195.98   0.001881    9.51  0.002995  ( 0.002811 -0.022098  0.049991)
 19:    206.79   0.000029    0.15  0.000043  (-0.001468  0.000397 -0.006403)
 20:    211.77   0.000050    0.25  0.000074  ( 0.006684  0.005155 -0.001568)
 21:    225.22   0.000267    1.35  0.000369  (-0.002107 -0.018238 -0.005685)
 22:    236.33   0.000039    0.20  0.000051  ( 0.004408  0.001675  0.005399)
 23:    251.05   0.000049    0.25  0.000060  ( 0.006110 -0.001108 -0.004674)
 24:    258.10   0.000072    0.37  0.000088  ( 0.001432 -0.000716 -0.009221)
 25:    288.19   0.001574    7.95  0.001704  ( 0.038779 -0.011798 -0.007807)
 26:    305.56   0.000138    0.70  0.000140  ( 0.008677  0.004984 -0.006352)
 27:    318.77   0.000540    2.73  0.000529  ( 0.022897 -0.001598 -0.001302)
 28:    323.32   0.002227   11.25  0.002149  (-0.042799 -0.017797  0.000797)
 29:    340.21   0.000076    0.38  0.000070  ( 0.007638  0.003344 -0.000037)
 30:    359.47   0.000154    0.78  0.000133  (-0.006705 -0.002933  0.008931)
 31:    371.37   0.000539    2.72  0.000453  ( 0.003165  0.005794 -0.020236)
 32:    372.90   0.000072    0.37  0.000061  (-0.007358  0.002246 -0.001151)
 33:    380.36   0.000044    0.22  0.000036  (-0.004832  0.002843 -0.002179)
 34:    384.97   0.000116    0.59  0.000094  ( 0.006398  0.000431 -0.007283)
 35:    425.51   0.000366    1.85  0.000268  ( 0.001640  0.008465  0.013922)
 36:    480.04   0.001483    7.49  0.000964  (-0.006332  0.004428 -0.030070)
 37:    523.16   0.015828   79.99  0.009441  ( 0.095508 -0.011308 -0.013837)
 38:    535.58   0.001629    8.23  0.000949  (-0.006565 -0.028296  0.010265)
 39:    537.61   0.009605   48.54  0.005576  (-0.028166  0.028650  0.062940)
 40:    559.23   0.014582   73.69  0.008137  ( 0.032094 -0.021860 -0.081420)
 41:    570.67   0.004098   20.71  0.002241  (-0.002113 -0.046577 -0.008189)
 42:    577.04   0.027388  138.41  0.014811  ( 0.106644 -0.006555  0.058271)
 43:    595.00   0.006391   32.30  0.003352  (-0.055963  0.014833 -0.000399)
 44:    614.53   0.000011    0.06  0.000006  (-0.002279 -0.000650  0.000045)
 45:    636.16   0.021039  106.32  0.010321  (-0.097788  0.026473  0.007581)
 46:    657.90   0.024678  124.71  0.011705  (-0.108172  0.001805 -0.001022)
 47:    703.36   0.000496    2.51  0.000220  ( 0.009870 -0.009692  0.005372)
 48:    711.27   0.011874   60.01  0.005210  (-0.072138  0.002149 -0.001034)
 49:    722.41   0.011065   55.92  0.004780  ( 0.020337 -0.011711 -0.065030)
 50:    734.86   0.000129    0.65  0.000055  ( 0.000019  0.002670  0.006912)
 51:    768.85   0.000773    3.91  0.000314  (-0.002128 -0.010722 -0.013934)
 52:    881.53   0.001617    8.17  0.000573  (-0.020593 -0.010516  0.006159)
 53:   1028.07   0.023161  117.04  0.007030  (-0.074683  0.028065 -0.025788)
 54:   1088.41   0.044328  224.02  0.012709  ( 0.001426  0.012923 -0.111984)
 55:   1118.87   0.016159   81.66  0.004507  ( 0.000163 -0.058426 -0.033063)
 56:   1135.93   0.013641   68.93  0.003747  (-0.036055  0.043343 -0.023849)
 57:   1152.98   0.100303  506.89  0.027148  (-0.006038 -0.161987 -0.029518)
 58:   1157.81   0.028220  142.61  0.007606  ( 0.078806  0.031315  0.020376)
 59:   1168.97   0.052686  266.25  0.014065  ( 0.005484  0.110530  0.042637)
 60:   1176.07   0.001719    8.69  0.000456  (-0.011088  0.010508  0.014929)
 61:   1180.77   0.133199  673.13  0.035203  ( 0.032806 -0.012832  0.184288)
 62:   1188.27   0.059004  298.18  0.015496  (-0.027857  0.115511 -0.037106)
 63:   1193.27   0.063129  319.03  0.016509  ( 0.014052 -0.000100 -0.127718)
 64:   1211.13   0.092702  468.48  0.023886  (-0.009639  0.084217 -0.129230)
 65:   1212.48   0.044508  224.93  0.011455  ( 0.074342 -0.046409 -0.061439)
 66:   1246.46   0.014837   74.98  0.003715  (-0.006978 -0.055053 -0.025200)
 67:   1268.89   0.012583   63.59  0.003095  (-0.025023 -0.035825  0.034425)
 68:   1301.65   0.005096   25.75  0.001222  ( 0.017042  0.029931  0.005957)
 69:   1315.18   0.011682   59.04  0.002772  ( 0.041038 -0.032962 -0.001121)
 70:   1360.41   0.004745   23.98  0.001088  (-0.004874  0.032561 -0.002116)
 71:   1381.99   0.033252  168.04  0.007509  (-0.084579 -0.018736 -0.001981)
 72:   1473.30   0.046469  234.84  0.009843  ( 0.065333 -0.073704  0.011919)
 73:   1746.33   0.069037  348.89  0.012337  (-0.010945 -0.107734  0.024704)
 74:   3679.50   0.054365  274.74  0.004611  ( 0.067740  0.004629  0.000827)

--------------------------
THERMOCHEMISTRY AT 298.15K
--------------------------

Temperature         ...   298.15 K
Pressure            ...     1.00 atm
Total Mass          ...   395.07 AMU
Quasi RRHO          ...     True
Cut-Off Frequency   ...     1.00 cm^-1

Throughout the following assumptions are being made:
  (1) The electronic state is orbitally nondegenerate
      but the spin degeneracy is treated
  (2) There are no thermally accessible electronically excited states
  (3) Hindered rotations indicated by low frequency modes are not
      treated as such but are treated as vibrations and this may
      cause some error
  (4) All equations used are the standard statistical mechanics
      equations for an ideal gas
  (5) All vibrations are strictly harmonic

freq.      21.83  E(vib)   ...       0.56
freq.      35.00  E(vib)   ...       0.54
freq.      39.29  E(vib)   ...       0.54
freq.      49.90  E(vib)   ...       0.52
freq.      57.20  E(vib)   ...       0.51
freq.      70.24  E(vib)   ...       0.50
freq.      71.22  E(vib)   ...       0.50
freq.      99.96  E(vib)   ...       0.46
freq.     116.44  E(vib)   ...       0.44
freq.     139.39  E(vib)   ...       0.42
freq.     167.60  E(vib)   ...       0.38
freq.     171.20  E(vib)   ...       0.38
freq.     195.98  E(vib)   ...       0.36
freq.     206.79  E(vib)   ...       0.35
freq.     211.77  E(vib)   ...       0.34
freq.     225.22  E(vib)   ...       0.33
freq.     236.33  E(vib)   ...       0.32
freq.     251.05  E(vib)   ...       0.30
freq.     258.10  E(vib)   ...       0.30
freq.     288.19  E(vib)   ...       0.27
freq.     305.56  E(vib)   ...       0.26
freq.     318.77  E(vib)   ...       0.25
freq.     323.32  E(vib)   ...       0.25
freq.     340.21  E(vib)   ...       0.23
freq.     359.47  E(vib)   ...       0.22
freq.     371.37  E(vib)   ...       0.21
freq.     372.90  E(vib)   ...       0.21
freq.     380.36  E(vib)   ...       0.21
freq.     384.97  E(vib)   ...       0.20
freq.     425.51  E(vib)   ...       0.18
freq.     480.04  E(vib)   ...       0.15
freq.     523.16  E(vib)   ...       0.13
freq.     535.58  E(vib)   ...       0.12
freq.     537.61  E(vib)   ...       0.12
freq.     559.23  E(vib)   ...       0.12
freq.     570.67  E(vib)   ...       0.11
freq.     577.04  E(vib)   ...       0.11
freq.     595.00  E(vib)   ...       0.10
freq.     614.53  E(vib)   ...       0.10
freq.     636.16  E(vib)   ...       0.09
freq.     657.90  E(vib)   ...       0.08
freq.     703.36  E(vib)   ...       0.07
freq.     711.27  E(vib)   ...       0.07
freq.     722.41  E(vib)   ...       0.07
freq.     734.86  E(vib)   ...       0.06
freq.     768.85  E(vib)   ...       0.06
freq.     881.53  E(vib)   ...       0.04
freq.    1028.07  E(vib)   ...       0.02
freq.    1088.41  E(vib)   ...       0.02
freq.    1118.87  E(vib)   ...       0.01
freq.    1135.93  E(vib)   ...       0.01
freq.    1152.98  E(vib)   ...       0.01
freq.    1157.81  E(vib)   ...       0.01
freq.    1168.97  E(vib)   ...       0.01
freq.    1176.07  E(vib)   ...       0.01
freq.    1180.77  E(vib)   ...       0.01
freq.    1188.27  E(vib)   ...       0.01
freq.    1193.27  E(vib)   ...       0.01
freq.    1211.13  E(vib)   ...       0.01
freq.    1212.48  E(vib)   ...       0.01
freq.    1246.46  E(vib)   ...       0.01
freq.    1268.89  E(vib)   ...       0.01
freq.    1301.65  E(vib)   ...       0.01
freq.    1315.18  E(vib)   ...       0.01
freq.    1360.41  E(vib)   ...       0.01
freq.    1381.99  E(vib)   ...       0.01
freq.    1473.30  E(vib)   ...       0.00
freq.    1746.33  E(vib)   ...       0.00
freq.    3679.50  E(vib)   ...       0.00

------------
INNER ENERGY
------------

The inner energy is: U= E(el) + E(ZPE) + E(vib) + E(rot) + E(trans)
    E(el)   - is the total energy from the electronic structure calculation
              = E(kin-el) + E(nuc-el) + E(el-el) + E(nuc-nuc)
    E(ZPE)  - the the zero temperature vibrational energy from the frequency calculation
    E(vib)  - the the finite temperature correction to E(ZPE) due to population
              of excited vibrational states
    E(rot)  - is the rotational thermal energy
    E(trans)- is the translational thermal energy

Summary of contributions to the inner energy U:
Electronic energy                ...  -1853.57695686 Eh
Zero point energy                ...      0.10728139 Eh      67.32 kcal/mol
Thermal vibrational correction   ...      0.01967409 Eh      12.35 kcal/mol
Thermal rotational correction    ...      0.00141627 Eh       0.89 kcal/mol
Thermal translational correction ...      0.00141627 Eh       0.89 kcal/mol
-----------------------------------------------------------------------
Total thermal energy                  -1853.44716883 Eh

Summary of corrections to the electronic energy:
(perhaps to be used in another calculation)
Total thermal correction                  0.02250664 Eh      14.12 kcal/mol
Non-thermal (ZPE) correction              0.10728139 Eh      67.32 kcal/mol
-----------------------------------------------------------------------
Total correction                          0.12978803 Eh      81.44 kcal/mol

--------
ENTHALPY
--------

The enthalpy is H = U + kB*T
                kB is Boltzmann's constant
Total thermal energy              ...  -1853.44716883 Eh
Thermal Enthalpy correction       ...      0.00094421 Eh       0.59 kcal/mol
-----------------------------------------------------------------------
Total Enthalpy                    ...  -1853.44622462 Eh

Note: Only C1 symmetry has been detected, increase convergence thresholds
      if your molecule has a higher symmetry. Symmetry factor of 1.0 is
      used for the rotational entropy correction.

Note: Rotational entropy computed according to Herzberg
Infrared and Raman Spectra, Chapter V,1, Van Nostrand Reinhold, 1945
Point Group:  C1, Symmetry Number:   1
Rotational constants in cm-1:     0.023454     0.004007     0.003879

Vibrational entropy computed according to the QRRHO of S. Grimme
Chem.Eur.J. 2012 18 9955 using a reference frequency of 100.0 cm-1

-------
ENTROPY
-------

The entropy contributions are T*S = T*(S(el)+S(vib)+S(rot)+S(trans))
     S(el)   - electronic entropy
     S(vib)  - vibrational entropy
     S(rot)  - rotational entropy
     S(trans)- translational entropy
The entropies will be listed as multiplied by the temperature to get
units of energy

Electronic entropy                ...      0.00065446 Eh      0.41 kcal/mol
Vibrational entropy               ...      0.03522872 Eh     22.11 kcal/mol

                             ****ORCA TERMINATED NORMALLY****
TOTAL RUN TIME: 0 days 0 hours 24 minutes 24 seconds 39 msec
