                         Program Version 6.0.1  -  RELEASE   -
|  1> !TPSSh def2-TZVP opt d3 TightSCF SlowConv defgrid2
|  2>
|  3> %pal
|  4> nprocs 20
|  5> end
|  6>
|  7> %scf
|  8> MaxIter 1500
|  9> end
| 10>
| 11> %maxcore 8000
| 12>
| 13> !CPCM
| 14> %cpcm smd true
| 15> SMDsolvent "ACETONITRILE"
| 16> end
| 17>
| 18> * xyz 0 2
| 19> 6        4.790427000     -0.033865800     -0.529943200
| 20> 8        5.449345000     -1.206924000     -0.894594600
| 21> 8        4.978223000      1.323071000     -0.737377200
| 22> 6        3.506687600     -0.338741600      0.376153800
| 23> 6        2.222300000      0.400524800     -0.110681600
| 24> 6        0.900506800     -0.386389800      0.175703000
| 25> 6       -0.395261200      0.487294000      0.065549000
| 26> 6       -1.705693600     -0.364773800     -0.068373600
| 27> 6       -3.005136200      0.445344800      0.258164000
| 28> 6       -4.319880200     -0.214526000     -0.270540800
| 29> 9        3.211587400     -1.692050400      0.412735200
| 30> 9        3.741061800      0.055285800      1.689948800
| 31> 9        2.125696800      1.616867800      0.483236600
| 32> 9        2.314152400      0.589704000     -1.455769200
| 33> 9        0.794028800     -1.413561400     -0.700839000
| 34> 9       -0.498373400      1.260265600      1.173340200
| 35> 9       -0.299075000      1.289512600     -1.020910800
| 36> 9       -1.641790400     -1.418189000      0.779523800
| 37> 9       -1.792381400     -0.831391600     -1.336863600
| 38> 9       -2.918792200      1.679227200     -0.295171200
| 39> 9       -3.119771000      0.573779800      1.598579800
| 40> 9       -4.383115600     -1.504377600      0.089127600
| 41> 9       -5.365669800      0.430528600      0.260394200
| 42> 9       -4.396020400     -0.128550600     -1.602941800
| 43> 1        5.903122371     -2.014774547     -1.145719253
| 44> *
| 45>
| 46>                          ****END OF INPUT****
 Total Charge           Charge          ....    0
 Multiplicity           Mult            ....    2
 Number of Electrons    NEL             ....  191
Dispersion correction           -0.029153619
FINAL SINGLE POINT ENERGY     -1854.295259908003
Dispersion correction             ... done (  0.0 sec)
Dispersion correction           -0.029311132
FINAL SINGLE POINT ENERGY     -1854.345318575900
Dispersion correction             ... done (  0.0 sec)
Dispersion correction           -0.029395385
FINAL SINGLE POINT ENERGY     -1854.355013954592
Dispersion correction             ... done (  0.0 sec)
FINAL SINGLE POINT ENERGY     -1854.361095225672
FINAL SINGLE POINT ENERGY     -1854.362713480979
FINAL SINGLE POINT ENERGY     -1854.365158750057
FINAL SINGLE POINT ENERGY     -1854.367528318408
FINAL SINGLE POINT ENERGY     -1854.375518883159
FINAL SINGLE POINT ENERGY     -1854.381973018114
FINAL SINGLE POINT ENERGY     -1854.385979571500
FINAL SINGLE POINT ENERGY     -1854.409633686743
FINAL SINGLE POINT ENERGY     -1854.409744824520
FINAL SINGLE POINT ENERGY     -1854.409776804839
FINAL SINGLE POINT ENERGY     -1854.409833705427
FINAL SINGLE POINT ENERGY     -1854.409855554304
FINAL SINGLE POINT ENERGY     -1854.409866826978
FINAL SINGLE POINT ENERGY     -1854.409874136682
Dispersion correction             ... done (  0.0 sec)
Dispersion correction           -0.030039756
FINAL SINGLE POINT ENERGY     -1854.409878431480
Dispersion correction             ... done (  0.0 sec)
Dispersion correction           -0.030038705
FINAL SINGLE POINT ENERGY     -1854.409880864644
Dispersion correction             ... done (  0.0 sec)
                    ***********************HURRAY********************

CARTESIAN COORDINATES (ANGSTROEM)
---------------------------------
  C      4.253038   -0.329911    0.633454
  O      5.027057   -1.131046   -0.088355
  O      4.603585    0.477554    1.450305
  C      2.760576   -0.544160    0.280345
  C      2.284900    0.291150   -0.951020
  C      0.855980    0.055837   -1.351758
  C     -0.378194    0.758194   -0.876926
  C     -1.502410   -0.228568   -0.397197
  C     -2.602008    0.447022    0.487544
  C     -3.928198   -0.370548    0.603490
  F      2.507934   -1.849919    0.010074
  F      2.013231   -0.178886    1.345800
  F      2.485682    1.601733   -0.664338
  F      3.078959   -0.046525   -2.002245
  F      0.654990   -0.948857   -2.192152
  F     -0.068365    1.588311    0.145881
  F     -0.905952    1.512634   -1.885459
  F     -0.926521   -1.214071    0.328223
  F     -2.083609   -0.784840   -1.482560
  F     -2.916834    1.658694   -0.019292
  F     -2.111318    0.613079    1.732644
  F     -3.673610   -1.642047    0.930942
  F     -4.688400    0.174661    1.558549
  F     -4.608048   -0.345179   -0.544665
  H      5.963714   -0.961023    0.141447

 Multiplicity           Mult            ....    2
 Number of Electrons    NEL             ....  191
 Basis Dimension        Dim             ....  750

ORBITAL ENERGIES
----------------
                 SPIN UP ORBITALS
  NO   OCC          E(Eh)            E(eV)
   0   1.0000     -24.675029      -671.4417
   1   1.0000     -24.662128      -671.0906
   2   1.0000     -24.661179      -671.0648
   3   1.0000     -24.661150      -671.0640
   4   1.0000     -24.660619      -671.0496
   5   1.0000     -24.660617      -671.0495
   6   1.0000     -24.660369      -671.0428
   7   1.0000     -24.659593      -671.0216
   8   1.0000     -24.658366      -670.9883
   9   1.0000     -24.652768      -670.8359
  10   1.0000     -24.651445      -670.7999
  11   1.0000     -24.649715      -670.7529
  12   1.0000     -24.648559      -670.7214
  13   1.0000     -24.648506      -670.7199
  14   1.0000     -19.131668      -520.5992
  15   1.0000     -19.078422      -519.1502
  16   1.0000     -10.396711      -282.9089
  17   1.0000     -10.344890      -281.4988
  18   1.0000     -10.344756      -281.4951
  19   1.0000     -10.344071      -281.4765
  20   1.0000     -10.339975      -281.3650
  21   1.0000     -10.327856      -281.0352
  22   1.0000     -10.279216      -279.7117
  23   1.0000     -10.269069      -279.4356
  24   1.0000      -1.323124       -36.0040
  25   1.0000      -1.296815       -35.2881
  26   1.0000      -1.285705       -34.9858
  27   1.0000      -1.279164       -34.8078
  28   1.0000      -1.274357       -34.6770
  29   1.0000      -1.268788       -34.5255
  30   1.0000      -1.263507       -34.3818
  31   1.0000      -1.238160       -33.6921
  32   1.0000      -1.232424       -33.5360
  33   1.0000      -1.230102       -33.4728
  34   1.0000      -1.222906       -33.2770
  35   1.0000      -1.221543       -33.2399
  36   1.0000      -1.217244       -33.1229
  37   1.0000      -1.211414       -32.9643
  38   1.0000      -1.117697       -30.4141
  39   1.0000      -1.033691       -28.1282
  40   1.0000      -0.837030       -22.7767
  41   1.0000      -0.814297       -22.1581
  42   1.0000      -0.786499       -21.4017
  43   1.0000      -0.753803       -20.5120
  44   1.0000      -0.713647       -19.4193
  45   1.0000      -0.673661       -18.3312
  46   1.0000      -0.654054       -17.7977
  47   1.0000      -0.638299       -17.3690
  48   1.0000      -0.623360       -16.9625
  49   1.0000      -0.619309       -16.8523
  50   1.0000      -0.610899       -16.6234
  51   1.0000      -0.600902       -16.3514
  52   1.0000      -0.600302       -16.3351
  53   1.0000      -0.595776       -16.2119
  54   1.0000      -0.586182       -15.9508
  55   1.0000      -0.584653       -15.9092
  56   1.0000      -0.583039       -15.8653
  57   1.0000      -0.570485       -15.5237
  58   1.0000      -0.568202       -15.4616
  59   1.0000      -0.555832       -15.1250
  60   1.0000      -0.552075       -15.0227
  61   1.0000      -0.544179       -14.8079
  62   1.0000      -0.508836       -13.8461
  63   1.0000      -0.495741       -13.4898
  64   1.0000      -0.486433       -13.2365
  65   1.0000      -0.482388       -13.1265
  66   1.0000      -0.476015       -12.9530
  67   1.0000      -0.471561       -12.8318
  68   1.0000      -0.470424       -12.8009
  69   1.0000      -0.467383       -12.7181
  70   1.0000      -0.463311       -12.6073
  71   1.0000      -0.459466       -12.5027
  72   1.0000      -0.456267       -12.4157
  73   1.0000      -0.454332       -12.3630
  74   1.0000      -0.449271       -12.2253
  75   1.0000      -0.445536       -12.1236
  76   1.0000      -0.442322       -12.0362
  77   1.0000      -0.440831       -11.9956
  78   1.0000      -0.437929       -11.9167
  79   1.0000      -0.435350       -11.8465
  80   1.0000      -0.431919       -11.7531
  81   1.0000      -0.424933       -11.5630
  82   1.0000      -0.423367       -11.5204
  83   1.0000      -0.422209       -11.4889
  84   1.0000      -0.419947       -11.4273
  85   1.0000      -0.415728       -11.3125
  86   1.0000      -0.413105       -11.2412
  87   1.0000      -0.411937       -11.2094
  88   1.0000      -0.410596       -11.1729
  89   1.0000      -0.403440       -10.9781
  90   1.0000      -0.387350       -10.5403
  91   1.0000      -0.361190        -9.8285
  92   1.0000      -0.339522        -9.2389
  93   1.0000      -0.337437        -9.1821
  94   1.0000      -0.298228        -8.1152
  95   1.0000      -0.258773        -7.0416
  96   0.0000      -0.058419        -1.5896
  97   0.0000      -0.023701        -0.6449
  98   0.0000       0.004136         0.1125
  99   0.0000       0.019713         0.5364
 100   0.0000       0.039435         1.0731

                 SPIN DOWN ORBITALS
  NO   OCC          E(Eh)            E(eV)
   0   1.0000     -24.670630      -671.3220
   1   1.0000     -24.662129      -671.0907
   2   1.0000     -24.661148      -671.0639
   3   1.0000     -24.661074      -671.0619
   4   1.0000     -24.660620      -671.0496
   5   1.0000     -24.660581      -671.0485
   6   1.0000     -24.660352      -671.0423
   7   1.0000     -24.659586      -671.0215
   8   1.0000     -24.658267      -670.9856
   9   1.0000     -24.652344      -670.8244
  10   1.0000     -24.650999      -670.7878
  11   1.0000     -24.648545      -670.7210
  12   1.0000     -24.648498      -670.7197
  13   1.0000     -24.648382      -670.7166
  14   1.0000     -19.131624      -520.5980
  15   1.0000     -19.078223      -519.1449
  16   1.0000     -10.396684      -282.9081
  17   1.0000     -10.345757      -281.5223
  18   1.0000     -10.344701      -281.4936
  19   1.0000     -10.343631      -281.4645
  20   1.0000     -10.340978      -281.3923
  21   1.0000     -10.327094      -281.0145
  22   1.0000     -10.279112      -279.7089
  23   1.0000     -10.253426      -279.0099
  24   1.0000      -1.323097       -36.0033
  25   1.0000      -1.296118       -35.2692
  26   1.0000      -1.284163       -34.9439
  27   1.0000      -1.278945       -34.8019
  28   1.0000      -1.273439       -34.6520
  29   1.0000      -1.266536       -34.4642
  30   1.0000      -1.258104       -34.2348
  31   1.0000      -1.238097       -33.6903
  32   1.0000      -1.232399       -33.5353
  33   1.0000      -1.229849       -33.4659
  34   1.0000      -1.222751       -33.2727
  35   1.0000      -1.220777       -33.2190
  36   1.0000      -1.215651       -33.0795
  37   1.0000      -1.210995       -32.9528
  38   1.0000      -1.117528       -30.4095
  39   1.0000      -1.033415       -28.1206
  40   1.0000      -0.826643       -22.4941
  41   1.0000      -0.809887       -22.0381
  42   1.0000      -0.784177       -21.3385
  43   1.0000      -0.747501       -20.3405
  44   1.0000      -0.712654       -19.3923
  45   1.0000      -0.670938       -18.2571
  46   1.0000      -0.650087       -17.6898
  47   1.0000      -0.636516       -17.3205
  48   1.0000      -0.622492       -16.9389
  49   1.0000      -0.618080       -16.8188
  50   1.0000      -0.610688       -16.6177
  51   1.0000      -0.599181       -16.3045
  52   1.0000      -0.598547       -16.2873
  53   1.0000      -0.591797       -16.1036
  54   1.0000      -0.584976       -15.9180
  55   1.0000      -0.582633       -15.8543
  56   1.0000      -0.582040       -15.8381
  57   1.0000      -0.569091       -15.4858
  58   1.0000      -0.567631       -15.4460
  59   1.0000      -0.554677       -15.0935
  60   1.0000      -0.550303       -14.9745
  61   1.0000      -0.543463       -14.7884
  62   1.0000      -0.495639       -13.4870
  63   1.0000      -0.486389       -13.2353
  64   1.0000      -0.485366       -13.2075
  65   1.0000      -0.478687       -13.0257
  66   1.0000      -0.473744       -12.8912
  67   1.0000      -0.471009       -12.8168
  68   1.0000      -0.469677       -12.7806
  69   1.0000      -0.466618       -12.6973
  70   1.0000      -0.461921       -12.5695
  71   1.0000      -0.458998       -12.4900
  72   1.0000      -0.455465       -12.3938
  73   1.0000      -0.453484       -12.3399
  74   1.0000      -0.448333       -12.1998
  75   1.0000      -0.444523       -12.0961
  76   1.0000      -0.440861       -11.9964
  77   1.0000      -0.439633       -11.9630
  78   1.0000      -0.436124       -11.8675
  79   1.0000      -0.434697       -11.8287
  80   1.0000      -0.430494       -11.7143
  81   1.0000      -0.424843       -11.5606
  82   1.0000      -0.422708       -11.5025
  83   1.0000      -0.421939       -11.4815
  84   1.0000      -0.419297       -11.4096
  85   1.0000      -0.415086       -11.2951
  86   1.0000      -0.412957       -11.2371
  87   1.0000      -0.411058       -11.1854
  88   1.0000      -0.410036       -11.1577
  89   1.0000      -0.402491       -10.9523
  90   1.0000      -0.385999       -10.5036
  91   1.0000      -0.358341        -9.7509
  92   1.0000      -0.338661        -9.2154
  93   1.0000      -0.336142        -9.1469
  94   1.0000      -0.296125        -8.0580
  95   0.0000      -0.138478        -3.7682
  96   0.0000      -0.054153        -1.4736
  97   0.0000      -0.019113        -0.5201
  98   0.0000       0.006788         0.1847
  99   0.0000       0.022924         0.6238

MULLIKEN ATOMIC CHARGES AND SPIN POPULATIONS
--------------------------------------------
   0 C :    0.220232    0.003638
   1 O :   -0.342245    0.001103
   2 O :   -0.288813    0.006941
   3 C :    0.370287    0.030517
   4 C :    0.323297   -0.030588
   5 C :    0.107870    0.855010
   6 C :    0.331067   -0.003475
   7 C :    0.277894    0.006697
   8 C :    0.295067    0.002452
   9 C :    0.410036    0.001099
  10 F :   -0.167573   -0.000243
  11 F :   -0.164551   -0.000375
  12 F :   -0.156824    0.006687
  13 F :   -0.158692    0.007964
  14 F :   -0.126504    0.083957
  15 F :   -0.155924    0.000533
  16 F :   -0.157407    0.025156
  17 F :   -0.155088    0.000147
  18 F :   -0.150537    0.002089
  19 F :   -0.146433   -0.000085
  20 F :   -0.144276    0.000146
  21 F :   -0.136150   -0.000042
  22 F :   -0.132812    0.000321
  23 F :   -0.133284    0.000026
  24 H :    0.381363    0.000326
Sum of atomic charges         :   -0.0000000

LOEWDIN ATOMIC CHARGES AND SPIN POPULATIONS
-------------------------------------------
   0 C :   -0.489126    0.004962
   1 O :    0.154922    0.001171
   2 O :    0.134020    0.005935
   3 C :   -0.449429    0.026174
   4 C :   -0.478775    0.061260
   5 C :   -0.157967    0.659090
   6 C :   -0.477683    0.063622
   7 C :   -0.453189    0.013404
   8 C :   -0.466637    0.002732
   9 C :   -0.667563    0.000813
  10 F :    0.205509    0.000456
  11 F :    0.215349    0.000742
  12 F :    0.215980    0.008354
  13 F :    0.211821    0.008704
  14 F :    0.265646    0.107618
  15 F :    0.225169    0.002682
  16 F :    0.199581    0.027562
  17 F :    0.224110    0.001286
  18 F :    0.224540    0.002616
  19 F :    0.224689   -0.000015
  20 F :    0.225428    0.000215
  21 F :    0.225949   -0.000015
  22 F :    0.226599    0.000375
  23 F :    0.228334    0.000060
  24 H :    0.232721    0.000195

  Mayer bond orders larger than 0.100000
B(  0-C ,  1-O ) :   1.3135 B(  0-C ,  2-O ) :   2.0706 B(  0-C ,  3-C ) :   0.9090
B(  1-O , 24-H ) :   0.8207 B(  3-C ,  4-C ) :   0.9342 B(  3-C , 10-F ) :   1.0775
B(  3-C , 11-F ) :   1.1005 B(  4-C ,  5-C ) :   1.0279 B(  4-C , 12-F ) :   1.1038
B(  4-C , 13-F ) :   1.0832 B(  5-C ,  6-C ) :   1.0678 B(  5-C , 14-F ) :   1.1409
B(  6-C ,  7-C ) :   0.9311 B(  6-C , 15-F ) :   1.0805 B(  6-C , 16-F ) :   1.0821
B(  7-C ,  8-C ) :   0.9287 B(  7-C , 17-F ) :   1.0857 B(  7-C , 18-F ) :   1.0983
B(  8-C ,  9-C ) :   0.9666 B(  8-C , 19-F ) :   1.1009 B(  8-C , 20-F ) :   1.1133
B(  9-C , 21-F ) :   1.1581 B(  9-C , 22-F ) :   1.1621 B(  9-C , 23-F ) :   1.1703

Dispersion correction           -0.030037281
FINAL SINGLE POINT ENERGY     -1854.409882360565

DIPOLE MOMENT
-------------

Method             : SCF
Type of density    : Electron Density
Multiplicity       :   2
Irrep              :   0
Energy             : -1854.3798450799743023 Eh
Relativity type    :
Basis              : AO
                                X                 Y                 Z
Electronic contribution:    -14.125765295       0.701628198      -1.690538203
Nuclear contribution   :     15.164789799      -1.278021225       1.202109115
                        -----------------------------------------
Total Dipole Moment    :      1.039024505      -0.576393027      -0.488429088
                        -----------------------------------------
Magnitude (a.u.)       :      1.284664866
Magnitude (Debye)      :      3.265358586

Rotational constants in cm-1:             0.018035             0.004417             0.004285
Rotational constants in MHz :           540.661853           132.406242           128.447970

                             ****ORCA TERMINATED NORMALLY****
TOTAL RUN TIME: 0 days 1 hours 8 minutes 40 seconds 348 msec
