                         Program Version 6.0.1  -  RELEASE   -
|  1> !r2scanh def2-TZVP freq d3 TightSCF SlowConv defgrid2
|  2>
|  3> %pal
|  4> nprocs 20
|  5> end
|  6>
|  7> %scf
|  8> MaxIter 1500
|  9> end
| 10>
| 11> %maxcore 8000
| 12>
| 13> !CPCM
| 14> %cpcm smd true
| 15> SMDsolvent "ACETONITRILE"
| 16> end
| 17>
| 18> * xyz -1 2
| 19> 6        4.504089000     -0.112913000     -0.891161000
| 20> 8        4.847997000     -1.054391000     -1.612410000
| 21> 8        4.882916000      1.065019000     -0.828992000
| 22> 6        3.368574000     -0.442247000      0.147923000
| 23> 6        2.050457000      0.299773000     -0.173542000
| 24> 6        0.788253000     -0.297101000      0.514160000
| 25> 6       -0.434062000      0.666841000      0.547779000
| 26> 6       -1.707202000     -0.046377000      0.859083000
| 27> 6       -3.081248000      0.422278000      0.496161000
| 28> 6       -3.678415000     -0.258634000     -0.760884000
| 29> 9        3.081922000     -1.770538000      0.193797000
| 30> 9        3.752813000     -0.085493000      1.404166000
| 31> 9        2.157132000      1.591021000      0.187661000
| 32> 9        1.849720000      0.248028000     -1.508251000
| 33> 9        0.417709000     -1.407194000     -0.150173000
| 34> 9        1.086849000     -0.630759000      1.782247000
| 35> 9       -0.188023000      1.634098000      1.468392000
| 36> 9       -0.549782000      1.272646000     -0.652850000
| 37> 9       -1.647344000     -1.061142000      1.696067000
| 38> 9       -3.070268000      1.750134000      0.263753000
| 39> 9       -3.923758000      0.162679000      1.516456000
| 40> 9       -3.705123000     -1.577195000     -0.590443000
| 41> 9       -4.917112000      0.172226000     -0.968668000
| 42> 9       -2.942307000      0.024187000     -1.829864000
| 43> *
| 44>
| 45>                          ****END OF INPUT****

CARTESIAN COORDINATES (ANGSTROEM)
---------------------------------
  C      4.504089   -0.112913   -0.891161
  O      4.847997   -1.054391   -1.612410
  O      4.882916    1.065019   -0.828992
  C      3.368574   -0.442247    0.147923
  C      2.050457    0.299773   -0.173542
  C      0.788253   -0.297101    0.514160
  C     -0.434062    0.666841    0.547779
  C     -1.707202   -0.046377    0.859083
  C     -3.081248    0.422278    0.496161
  C     -3.678415   -0.258634   -0.760884
  F      3.081922   -1.770538    0.193797
  F      3.752813   -0.085493    1.404166
  F      2.157132    1.591021    0.187661
  F      1.849720    0.248028   -1.508251
  F      0.417709   -1.407194   -0.150173
  F      1.086849   -0.630759    1.782247
  F     -0.188023    1.634098    1.468392
  F     -0.549782    1.272646   -0.652850
  F     -1.647344   -1.061142    1.696067
  F     -3.070268    1.750134    0.263753
  F     -3.923758    0.162679    1.516456
  F     -3.705123   -1.577195   -0.590443
  F     -4.917112    0.172226   -0.968668
  F     -2.942307    0.024187   -1.829864

 Total Charge           Charge          ....   -1
 Multiplicity           Mult            ....    2
 Number of Electrons    NEL             ....  191
 Basis Dimension        Dim             ....  744

ORBITAL ENERGIES
----------------
                 SPIN UP ORBITALS
  NO   OCC          E(Eh)            E(eV)
   0   1.0000     -24.742970      -673.2905
   1   1.0000     -24.728693      -672.9019
   2   1.0000     -24.728501      -672.8967
   3   1.0000     -24.727871      -672.8796
   4   1.0000     -24.724668      -672.7924
   5   1.0000     -24.723112      -672.7501
   6   1.0000     -24.722358      -672.7296
   7   1.0000     -24.720536      -672.6800
   8   1.0000     -24.720526      -672.6797
   9   1.0000     -24.715276      -672.5368
  10   1.0000     -24.709783      -672.3874
  11   1.0000     -24.709760      -672.3867
  12   1.0000     -24.685807      -671.7349
  13   1.0000     -24.685550      -671.7280
  14   1.0000     -19.048954      -518.3484
  15   1.0000     -19.047200      -518.3007
  16   1.0000     -10.433500      -283.9100
  17   1.0000     -10.381821      -282.5037
  18   1.0000     -10.378833      -282.4224
  19   1.0000     -10.372011      -282.2368
  20   1.0000     -10.358789      -281.8770
  21   1.0000     -10.321656      -280.8665
  22   1.0000     -10.307779      -280.4889
  23   1.0000     -10.233221      -278.4601
  24   1.0000      -1.356566       -36.9140
  25   1.0000      -1.324632       -36.0451
  26   1.0000      -1.313755       -35.7491
  27   1.0000      -1.302706       -35.4484
  28   1.0000      -1.299366       -35.3576
  29   1.0000      -1.295469       -35.2515
  30   1.0000      -1.269099       -34.5339
  31   1.0000      -1.266159       -34.4539
  32   1.0000      -1.263438       -34.3799
  33   1.0000      -1.255837       -34.1731
  34   1.0000      -1.251592       -34.0575
  35   1.0000      -1.244016       -33.8514
  36   1.0000      -1.238199       -33.6931
  37   1.0000      -1.210616       -32.9425
  38   1.0000      -1.028630       -27.9904
  39   1.0000      -0.944256       -25.6945
  40   1.0000      -0.854716       -23.2580
  41   1.0000      -0.819724       -22.3058
  42   1.0000      -0.788619       -21.4594
  43   1.0000      -0.748542       -20.3689
  44   1.0000      -0.708678       -19.2841
  45   1.0000      -0.671580       -18.2746
  46   1.0000      -0.658370       -17.9151
  47   1.0000      -0.632156       -17.2018
  48   1.0000      -0.625156       -17.0114
  49   1.0000      -0.624624       -16.9969
  50   1.0000      -0.616022       -16.7628
  51   1.0000      -0.610205       -16.6045
  52   1.0000      -0.607097       -16.5200
  53   1.0000      -0.592372       -16.1192
  54   1.0000      -0.588806       -16.0222
  55   1.0000      -0.582775       -15.8581
  56   1.0000      -0.570925       -15.5357
  57   1.0000      -0.568427       -15.4677
  58   1.0000      -0.561576       -15.2813
  59   1.0000      -0.553750       -15.0683
  60   1.0000      -0.539308       -14.6753
  61   1.0000      -0.523033       -14.2324
  62   1.0000      -0.492528       -13.4024
  63   1.0000      -0.490098       -13.3363
  64   1.0000      -0.485370       -13.2076
  65   1.0000      -0.483453       -13.1554
  66   1.0000      -0.482678       -13.1343
  67   1.0000      -0.472078       -12.8459
  68   1.0000      -0.466291       -12.6884
  69   1.0000      -0.463559       -12.6141
  70   1.0000      -0.461644       -12.5620
  71   1.0000      -0.457392       -12.4463
  72   1.0000      -0.451283       -12.2800
  73   1.0000      -0.448815       -12.2129
  74   1.0000      -0.446518       -12.1504
  75   1.0000      -0.445090       -12.1115
  76   1.0000      -0.440192       -11.9782
  77   1.0000      -0.438108       -11.9215
  78   1.0000      -0.431302       -11.7363
  79   1.0000      -0.425694       -11.5837
  80   1.0000      -0.424389       -11.5482
  81   1.0000      -0.422973       -11.5097
  82   1.0000      -0.420388       -11.4393
  83   1.0000      -0.417285       -11.3549
  84   1.0000      -0.411683       -11.2025
  85   1.0000      -0.400395       -10.8953
  86   1.0000      -0.397280       -10.8105
  87   1.0000      -0.387908       -10.5555
  88   1.0000      -0.383434       -10.4338
  89   1.0000      -0.375143       -10.2082
  90   1.0000      -0.365438        -9.9441
  91   1.0000      -0.328898        -8.9498
  92   1.0000      -0.265920        -7.2361
  93   1.0000      -0.241330        -6.5669
  94   1.0000      -0.224995        -6.1224
  95   1.0000      -0.222961        -6.0671
  96   0.0000      -0.012393        -0.3372
  97   0.0000       0.017379         0.4729
  98   0.0000       0.034546         0.9400
  99   0.0000       0.049842         1.3563
 100   0.0000       0.071272         1.9394

                 SPIN DOWN ORBITALS
  NO   OCC          E(Eh)            E(eV)
   0   1.0000     -24.737773      -673.1490
   1   1.0000     -24.728651      -672.9008
   2   1.0000     -24.728441      -672.8951
   3   1.0000     -24.727517      -672.8700
   4   1.0000     -24.724074      -672.7763
   5   1.0000     -24.722388      -672.7304
   6   1.0000     -24.721929      -672.7179
   7   1.0000     -24.720444      -672.6775
   8   1.0000     -24.720423      -672.6769
   9   1.0000     -24.713298      -672.4830
  10   1.0000     -24.709780      -672.3873
  11   1.0000     -24.709758      -672.3867
  12   1.0000     -24.685803      -671.7349
  13   1.0000     -24.685550      -671.7280
  14   1.0000     -19.048947      -518.3482
  15   1.0000     -19.047200      -518.3007
  16   1.0000     -10.432761      -283.8899
  17   1.0000     -10.382912      -282.5334
  18   1.0000     -10.379760      -282.4476
  19   1.0000     -10.371834      -282.2320
  20   1.0000     -10.358791      -281.8770
  21   1.0000     -10.321650      -280.8664
  22   1.0000     -10.290657      -280.0230
  23   1.0000     -10.233220      -278.4601
  24   1.0000      -1.356108       -36.9016
  25   1.0000      -1.323289       -36.0085
  26   1.0000      -1.311649       -35.6918
  27   1.0000      -1.301382       -35.4124
  28   1.0000      -1.297144       -35.2971
  29   1.0000      -1.289845       -35.0985
  30   1.0000      -1.269084       -34.5335
  31   1.0000      -1.265820       -34.4447
  32   1.0000      -1.262961       -34.3669
  33   1.0000      -1.255165       -34.1548
  34   1.0000      -1.250239       -34.0207
  35   1.0000      -1.241808       -33.7913
  36   1.0000      -1.238168       -33.6923
  37   1.0000      -1.210612       -32.9424
  38   1.0000      -1.028624       -27.9903
  39   1.0000      -0.944249       -25.6943
  40   1.0000      -0.838291       -22.8111
  41   1.0000      -0.817521       -22.2459
  42   1.0000      -0.785369       -21.3710
  43   1.0000      -0.740598       -20.1527
  44   1.0000      -0.707007       -19.2386
  45   1.0000      -0.667229       -18.1562
  46   1.0000      -0.656348       -17.8601
  47   1.0000      -0.627848       -17.0846
  48   1.0000      -0.624013       -16.9803
  49   1.0000      -0.622532       -16.9399
  50   1.0000      -0.615149       -16.7390
  51   1.0000      -0.608890       -16.5688
  52   1.0000      -0.605628       -16.4800
  53   1.0000      -0.590925       -16.0799
  54   1.0000      -0.586795       -15.9675
  55   1.0000      -0.580484       -15.7958
  56   1.0000      -0.569358       -15.4930
  57   1.0000      -0.566424       -15.4132
  58   1.0000      -0.560515       -15.2524
  59   1.0000      -0.552804       -15.0426
  60   1.0000      -0.539285       -14.6747
  61   1.0000      -0.494280       -13.4501
  62   1.0000      -0.489307       -13.3147
  63   1.0000      -0.488577       -13.2948
  64   1.0000      -0.485129       -13.2010
  65   1.0000      -0.482519       -13.1300
  66   1.0000      -0.480946       -13.0872
  67   1.0000      -0.471242       -12.8232
  68   1.0000      -0.465328       -12.6622
  69   1.0000      -0.462142       -12.5755
  70   1.0000      -0.459934       -12.5154
  71   1.0000      -0.455439       -12.3931
  72   1.0000      -0.448279       -12.1983
  73   1.0000      -0.447631       -12.1807
  74   1.0000      -0.445498       -12.1226
  75   1.0000      -0.443461       -12.0672
  76   1.0000      -0.439224       -11.9519
  77   1.0000      -0.437030       -11.8922
  78   1.0000      -0.430524       -11.7151
  79   1.0000      -0.424500       -11.5512
  80   1.0000      -0.423907       -11.5351
  81   1.0000      -0.421562       -11.4713
  82   1.0000      -0.419293       -11.4095
  83   1.0000      -0.416964       -11.3462
  84   1.0000      -0.410571       -11.1722
  85   1.0000      -0.399730       -10.8772
  86   1.0000      -0.397265       -10.8101
  87   1.0000      -0.387845       -10.5538
  88   1.0000      -0.381001       -10.3676
  89   1.0000      -0.375128       -10.2077
  90   1.0000      -0.362129        -9.8540
  91   1.0000      -0.327430        -8.9098
  92   1.0000      -0.241326        -6.5668
  93   1.0000      -0.224999        -6.1225
  94   1.0000      -0.222967        -6.0672
  95   0.0000      -0.121298        -3.3007
  96   0.0000      -0.010247        -0.2788
  97   0.0000       0.018888         0.5140
  98   0.0000       0.038700         1.0531
  99   0.0000       0.054348         1.4789

MULLIKEN ATOMIC CHARGES AND SPIN POPULATIONS
--------------------------------------------
   0 C :    0.212040   -0.000031
   1 O :   -0.509932    0.000211
   2 O :   -0.523259    0.000029
   3 C :    0.346698    0.000230
   4 C :    0.297557    0.000684
   5 C :    0.330544   -0.003316
   6 C :    0.367698   -0.001565
   7 C :    0.100504    0.852266
   8 C :    0.354855   -0.038383
   9 C :    0.477173    0.026406
  10 F :   -0.208193   -0.000000
  11 F :   -0.213938    0.000059
  12 F :   -0.178905   -0.000015
  13 F :   -0.186873    0.000046
  14 F :   -0.175147    0.000962
  15 F :   -0.173167    0.001622
  16 F :   -0.176680    0.033480
  17 F :   -0.177014    0.005840
  18 F :   -0.145612    0.091510
  19 F :   -0.169281    0.009478
  20 F :   -0.167334    0.012731
  21 F :   -0.162854    0.000642
  22 F :   -0.157351    0.006142
  23 F :   -0.161530    0.000975
Sum of atomic charges         :   -1.0000000

LOEWDIN ATOMIC CHARGES AND SPIN POPULATIONS
-------------------------------------------
   0 C :   -0.696486    0.000055
   1 O :   -0.048753    0.000192
   2 O :   -0.055014    0.000023
   3 C :   -0.450995    0.000230
   4 C :   -0.468990    0.000325
   5 C :   -0.462542    0.004574
   6 C :   -0.484956    0.056911
   7 C :   -0.166756    0.668855
   8 C :   -0.495585    0.058793
   9 C :   -0.675160    0.020544
  10 F :    0.170185    0.000017
  11 F :    0.163274    0.000074
  12 F :    0.216655    0.000076
  13 F :    0.208708    0.000069
  14 F :    0.221371    0.002174
  15 F :    0.221793    0.001967
  16 F :    0.199129    0.035786
  17 F :    0.218590    0.008565
  18 F :    0.265806    0.108560
  19 F :    0.219342    0.010215
  20 F :    0.217330    0.012456
  21 F :    0.226908    0.001183
  22 F :    0.227560    0.006789
  23 F :    0.228584    0.001567

  Mayer bond orders larger than 0.100000
B(  0-C ,  1-O ) :   1.8538 B(  0-C ,  2-O ) :   1.8257 B(  0-C ,  3-C ) :   0.8351
B(  3-C ,  4-C ) :   0.9292 B(  3-C , 10-F ) :   1.0340 B(  3-C , 11-F ) :   1.0253
B(  4-C ,  5-C ) :   0.9194 B(  4-C , 12-F ) :   1.0703 B(  4-C , 13-F ) :   1.0618
B(  5-C ,  6-C ) :   0.9293 B(  5-C , 14-F ) :   1.0698 B(  5-C , 15-F ) :   1.0712
B(  6-C ,  7-C ) :   1.0427 B(  6-C , 16-F ) :   1.0694 B(  6-C , 17-F ) :   1.0502
B(  7-C ,  8-C ) :   1.0275 B(  7-C , 18-F ) :   1.1075 B(  8-C ,  9-C ) :   0.9519
B(  8-C , 19-F ) :   1.0808 B(  8-C , 20-F ) :   1.0844 B(  9-C , 21-F ) :   1.1241
B(  9-C , 22-F ) :   1.1305 B(  9-C , 23-F ) :   1.1311

Dispersion correction           -0.008117734
FINAL SINGLE POINT ENERGY     -1853.116928757604

DIPOLE MOMENT
-------------

Method             : SCF
Type of density    : Electron Density
Multiplicity       :   2
Irrep              :   0
Energy             : -1853.1088110231130486 Eh
Relativity type    :
Basis              : AO
                                X                 Y                 Z
Electronic contribution:    -16.769405291      -0.055544559       3.790919781
Nuclear contribution   :      8.572720649      -0.000535729      -1.878189095
                        -----------------------------------------
Total Dipole Moment    :     -8.196684643      -0.056080289       1.912730687
                        -----------------------------------------
Magnitude (a.u.)       :      8.417085173
Magnitude (Debye)      :     21.394530259

VIBRATIONAL FREQUENCIES
-----------------------

Scaling factor for frequencies =  1.000000000  (already applied!)

     0:       0.00 cm**-1
     1:       0.00 cm**-1
     2:       0.00 cm**-1
     3:       0.00 cm**-1
     4:       0.00 cm**-1
     5:       0.00 cm**-1
     6:     -14.48 cm**-1  ***imaginary mode***
     7:      18.03 cm**-1
     8:      34.31 cm**-1
     9:      44.04 cm**-1
    10:      47.64 cm**-1
    11:      60.17 cm**-1
    12:      62.60 cm**-1
    13:      77.15 cm**-1
    14:      95.16 cm**-1
    15:     129.35 cm**-1
    16:     145.97 cm**-1
    17:     176.27 cm**-1
    18:     189.17 cm**-1
    19:     199.30 cm**-1
    20:     208.81 cm**-1
    21:     215.28 cm**-1
    22:     245.60 cm**-1
    23:     250.07 cm**-1
    24:     260.25 cm**-1
    25:     275.31 cm**-1
    26:     295.20 cm**-1
    27:     310.45 cm**-1
    28:     339.77 cm**-1
    29:     342.84 cm**-1
    30:     360.54 cm**-1
    31:     364.08 cm**-1
    32:     373.00 cm**-1
    33:     376.75 cm**-1
    34:     415.64 cm**-1
    35:     438.05 cm**-1
    36:     474.03 cm**-1
    37:     496.92 cm**-1
    38:     535.67 cm**-1
    39:     540.64 cm**-1
    40:     560.29 cm**-1
    41:     576.57 cm**-1
    42:     600.76 cm**-1
    43:     606.59 cm**-1
    44:     642.46 cm**-1
    45:     657.95 cm**-1
    46:     671.09 cm**-1
    47:     722.37 cm**-1
    48:     735.35 cm**-1
    49:     783.55 cm**-1
    50:     803.42 cm**-1
    51:     891.36 cm**-1
    52:    1003.80 cm**-1
    53:    1062.44 cm**-1
    54:    1099.07 cm**-1
    55:    1107.76 cm**-1
    56:    1129.76 cm**-1
    57:    1130.39 cm**-1
    58:    1144.91 cm**-1
    59:    1156.78 cm**-1
    60:    1161.92 cm**-1
    61:    1175.81 cm**-1
    62:    1194.41 cm**-1
    63:    1199.59 cm**-1
    64:    1209.73 cm**-1
    65:    1271.38 cm**-1
    66:    1288.22 cm**-1
    67:    1317.03 cm**-1
    68:    1355.62 cm**-1
    69:    1385.55 cm**-1
    70:    1421.17 cm**-1
    71:    1758.31 cm**-1

IR SPECTRUM
-----------

 Mode   freq       eps      Int      T**2         TX        TY        TZ
       cm**-1   L/(mol*cm) km/mol    a.u.
----------------------------------------------------------------------------
  7:     18.03   0.000511    2.58  0.008841  (-0.051299 -0.049638 -0.061197)
  8:     34.31   0.000245    1.24  0.002229  ( 0.022383 -0.018776  0.037094)
  9:     44.04   0.000470    2.37  0.003330  (-0.000709 -0.057541  0.004314)
 10:     47.64   0.000389    1.97  0.002549  (-0.027127 -0.016007 -0.039460)
 11:     60.17   0.000071    0.36  0.000369  (-0.010356  0.008185 -0.013965)
 12:     62.60   0.000286    1.44  0.001423  (-0.008422  0.034540 -0.012623)
 13:     77.15   0.000021    0.11  0.000085  ( 0.003787  0.008333  0.001182)
 14:     95.16   0.000590    2.98  0.001935  (-0.024521  0.016396 -0.032637)
 15:    129.35   0.000368    1.86  0.000889  ( 0.026419 -0.008930  0.010544)
 16:    145.97   0.001142    5.77  0.002442  ( 0.047169 -0.014717  0.000486)
 17:    176.27   0.001127    5.70  0.001996  ( 0.024766 -0.009503  0.035947)
 18:    189.17   0.000387    1.96  0.000638  ( 0.004637 -0.000692  0.024824)
 19:    199.30   0.000220    1.11  0.000345  (-0.017691 -0.004537  0.003362)
 20:    208.81   0.001113    5.63  0.001664  (-0.019759 -0.035050 -0.006725)
 21:    215.28   0.000831    4.20  0.001204  ( 0.007645 -0.010070 -0.032320)
 22:    245.60   0.000027    0.14  0.000034  ( 0.002119 -0.000323 -0.005440)
 23:    250.07   0.000079    0.40  0.000098  ( 0.000339 -0.003044 -0.009419)
 24:    260.25   0.000238    1.21  0.000286  (-0.005514  0.000977 -0.015957)
 25:    275.31   0.000993    5.02  0.001125  ( 0.033327  0.000736 -0.003770)
 26:    295.20   0.000225    1.14  0.000238  (-0.012497  0.008873  0.001711)
 27:    310.45   0.000088    0.45  0.000089  ( 0.007353 -0.004860 -0.003316)
 28:    339.77   0.000001    0.01  0.000001  ( 0.000962 -0.000375 -0.000399)
 29:    342.84   0.000472    2.38  0.000430  (-0.015660  0.004915 -0.012654)
 30:    360.54   0.000059    0.30  0.000051  (-0.004921 -0.001982 -0.004775)
 31:    364.08   0.000091    0.46  0.000078  (-0.008411  0.001858  0.001908)
 32:    373.00   0.000483    2.44  0.000404  ( 0.019768 -0.000608  0.003585)
 33:    376.75   0.000003    0.01  0.000002  ( 0.000021  0.000546  0.001341)
 34:    415.64   0.000376    1.90  0.000282  (-0.009446 -0.013881 -0.000438)
 35:    438.05   0.000289    1.46  0.000206  ( 0.000649  0.009805 -0.010461)
 36:    474.03   0.000737    3.73  0.000486  ( 0.018478 -0.010554 -0.005716)
 37:    496.92   0.007981   40.33  0.005012  ( 0.069379 -0.014095 -0.000080)
 38:    535.67   0.003514   17.76  0.002047  ( 0.044046 -0.008319  0.006133)
 39:    540.64   0.004322   21.84  0.002495  (-0.048269  0.007171  0.010639)
 40:    560.29   0.004619   23.34  0.002573  (-0.034496  0.029410 -0.022753)
 41:    576.57   0.008715   44.04  0.004717  (-0.062568 -0.023835  0.015308)
 42:    600.76   0.000490    2.48  0.000255  (-0.011613  0.010804 -0.001726)
 43:    606.59   0.003024   15.28  0.001556  (-0.038529 -0.003824 -0.007532)
 44:    642.46   0.003448   17.42  0.001675  ( 0.008825 -0.019013 -0.035148)
 45:    657.95   0.039266  198.44  0.018624  (-0.136005 -0.009192  0.006483)
 46:    671.09   0.003268   16.52  0.001520  ( 0.033050 -0.013093 -0.015999)
 47:    722.37   0.002007   10.14  0.000867  ( 0.022973 -0.003446 -0.018089)
 48:    735.35   0.006614   33.42  0.002807  ( 0.028921  0.012054  0.042721)
 49:    783.55   0.003013   15.23  0.001200  ( 0.023986 -0.007518 -0.023836)
 50:    803.42   0.019236   97.21  0.007472  ( 0.051806  0.019800 -0.066301)
 51:    891.36   0.006716   33.94  0.002351  ( 0.033045  0.016464  0.031434)
 52:   1003.80   0.033935  171.50  0.010550  (-0.039863 -0.014789 -0.093499)
 53:   1062.44   0.009836   49.71  0.002889  (-0.025692 -0.039697 -0.025555)
 54:   1099.07   0.051175  258.62  0.014530  ( 0.001951  0.104723  0.059661)
 55:   1107.76   0.046958  237.31  0.013228  ( 0.036311  0.083125  0.070713)
 56:   1129.76   0.024817  125.41  0.006855  (-0.014607 -0.035288  0.073459)
 57:   1130.39   0.043435  219.50  0.011991  (-0.001331  0.000029  0.109495)
 58:   1144.91   0.021400  108.15  0.005833  ( 0.052915  0.054988 -0.003010)
 59:   1156.78   0.096620  488.28  0.026065  (-0.027323 -0.077783 -0.138810)
 60:   1161.92   0.133588  675.10  0.035879  ( 0.031424 -0.177752  0.057406)
 61:   1175.81   0.033137  167.46  0.008795  (-0.045659  0.049466 -0.065293)
 62:   1194.41   0.053120  268.45  0.013879  (-0.032742  0.108962 -0.030563)
 63:   1199.59   0.104109  526.13  0.027083  (-0.115270 -0.053758  0.104431)
 64:   1209.73   0.001227    6.20  0.000317  ( 0.000377  0.005546  0.016901)
 65:   1271.38   0.004106   20.75  0.001008  ( 0.020584  0.009439  0.022250)
 66:   1288.22   0.002542   12.85  0.000616  (-0.005214 -0.011934 -0.021124)
 67:   1317.03   0.030355  153.40  0.007193  ( 0.074388 -0.003980  0.040536)
 68:   1355.62   0.013438   67.91  0.003093  ( 0.049039  0.008375 -0.024869)
 69:   1385.55   0.060278  304.62  0.013576  (-0.093366 -0.027945  0.063859)
 70:   1421.17   0.004122   20.83  0.000905  ( 0.008451 -0.019813  0.021001)
 71:   1758.31   0.160461  810.91  0.028479  ( 0.000538  0.157930  0.059468)

--------------------------
THERMOCHEMISTRY AT 298.15K
--------------------------

Temperature         ...   298.15 K
Pressure            ...     1.00 atm
Total Mass          ...   394.06 AMU
Quasi RRHO          ...     True
Cut-Off Frequency   ...     1.00 cm^-1

Throughout the following assumptions are being made:
  (1) The electronic state is orbitally nondegenerate
      but the spin degeneracy is treated
  (2) There are no thermally accessible electronically excited states
  (3) Hindered rotations indicated by low frequency modes are not
      treated as such but are treated as vibrations and this may
      cause some error
  (4) All equations used are the standard statistical mechanics
      equations for an ideal gas
  (5) All vibrations are strictly harmonic

freq.      18.03  E(vib)   ...       0.57
freq.      34.31  E(vib)   ...       0.54
freq.      44.04  E(vib)   ...       0.53
freq.      47.64  E(vib)   ...       0.53
freq.      60.17  E(vib)   ...       0.51
freq.      62.60  E(vib)   ...       0.51
freq.      77.15  E(vib)   ...       0.49
freq.      95.16  E(vib)   ...       0.47
freq.     129.35  E(vib)   ...       0.43
freq.     145.97  E(vib)   ...       0.41
freq.     176.27  E(vib)   ...       0.38
freq.     189.17  E(vib)   ...       0.36
freq.     199.30  E(vib)   ...       0.35
freq.     208.81  E(vib)   ...       0.34
freq.     215.28  E(vib)   ...       0.34
freq.     245.60  E(vib)   ...       0.31
freq.     250.07  E(vib)   ...       0.31
freq.     260.25  E(vib)   ...       0.30
freq.     275.31  E(vib)   ...       0.28
freq.     295.20  E(vib)   ...       0.27
freq.     310.45  E(vib)   ...       0.26
freq.     339.77  E(vib)   ...       0.23
freq.     342.84  E(vib)   ...       0.23
freq.     360.54  E(vib)   ...       0.22
freq.     364.08  E(vib)   ...       0.22
freq.     373.00  E(vib)   ...       0.21
freq.     376.75  E(vib)   ...       0.21
freq.     415.64  E(vib)   ...       0.18
freq.     438.05  E(vib)   ...       0.17
freq.     474.03  E(vib)   ...       0.15
freq.     496.92  E(vib)   ...       0.14
freq.     535.67  E(vib)   ...       0.12
freq.     540.64  E(vib)   ...       0.12
freq.     560.29  E(vib)   ...       0.11
freq.     576.57  E(vib)   ...       0.11
freq.     600.76  E(vib)   ...       0.10
freq.     606.59  E(vib)   ...       0.10
freq.     642.46  E(vib)   ...       0.09
freq.     657.95  E(vib)   ...       0.08
freq.     671.09  E(vib)   ...       0.08
freq.     722.37  E(vib)   ...       0.07
freq.     735.35  E(vib)   ...       0.06
freq.     783.55  E(vib)   ...       0.05
freq.     803.42  E(vib)   ...       0.05
freq.     891.36  E(vib)   ...       0.04
freq.    1003.80  E(vib)   ...       0.02
freq.    1062.44  E(vib)   ...       0.02
freq.    1099.07  E(vib)   ...       0.02
freq.    1107.76  E(vib)   ...       0.02
freq.    1129.76  E(vib)   ...       0.01
freq.    1130.39  E(vib)   ...       0.01
freq.    1144.91  E(vib)   ...       0.01
freq.    1156.78  E(vib)   ...       0.01
freq.    1161.92  E(vib)   ...       0.01
freq.    1175.81  E(vib)   ...       0.01
freq.    1194.41  E(vib)   ...       0.01
freq.    1199.59  E(vib)   ...       0.01
freq.    1209.73  E(vib)   ...       0.01
freq.    1271.38  E(vib)   ...       0.01
freq.    1288.22  E(vib)   ...       0.01
freq.    1317.03  E(vib)   ...       0.01
freq.    1355.62  E(vib)   ...       0.01
freq.    1385.55  E(vib)   ...       0.00
freq.    1421.17  E(vib)   ...       0.00
freq.    1758.31  E(vib)   ...       0.00

------------
INNER ENERGY
------------

The inner energy is: U= E(el) + E(ZPE) + E(vib) + E(rot) + E(trans)
    E(el)   - is the total energy from the electronic structure calculation
              = E(kin-el) + E(nuc-el) + E(el-el) + E(nuc-nuc)
    E(ZPE)  - the the zero temperature vibrational energy from the frequency calculation
    E(vib)  - the the finite temperature correction to E(ZPE) due to population
              of excited vibrational states
    E(rot)  - is the rotational thermal energy
    E(trans)- is the translational thermal energy

Summary of contributions to the inner energy U:
Electronic energy                ...  -1853.11692876 Eh
Zero point energy                ...      0.09391394 Eh      58.93 kcal/mol
Thermal vibrational correction   ...      0.01886959 Eh      11.84 kcal/mol
Thermal rotational correction    ...      0.00141627 Eh       0.89 kcal/mol
Thermal translational correction ...      0.00141627 Eh       0.89 kcal/mol
-----------------------------------------------------------------------
Total thermal energy                  -1853.00131268 Eh

Summary of corrections to the electronic energy:
(perhaps to be used in another calculation)
Total thermal correction                  0.02170213 Eh      13.62 kcal/mol
Non-thermal (ZPE) correction              0.09391394 Eh      58.93 kcal/mol
-----------------------------------------------------------------------
Total correction                          0.11561607 Eh      72.55 kcal/mol

--------
ENTHALPY
--------

The enthalpy is H = U + kB*T
                kB is Boltzmann's constant
Total thermal energy              ...  -1853.00131268 Eh
Thermal Enthalpy correction       ...      0.00094421 Eh       0.59 kcal/mol
-----------------------------------------------------------------------
Total Enthalpy                    ...  -1853.00036847 Eh

Note: Only C1 symmetry has been detected, increase convergence thresholds
      if your molecule has a higher symmetry. Symmetry factor of 1.0 is
      used for the rotational entropy correction.

Note: Rotational entropy computed according to Herzberg
Infrared and Raman Spectra, Chapter V,1, Van Nostrand Reinhold, 1945
Point Group:  C1, Symmetry Number:   1
Rotational constants in cm-1:     0.019289     0.004255     0.004192

Vibrational entropy computed according to the QRRHO of S. Grimme
Chem.Eur.J. 2012 18 9955 using a reference frequency of 100.0 cm-1

-------
ENTROPY
-------

The entropy contributions are T*S = T*(S(el)+S(vib)+S(rot)+S(trans))
     S(el)   - electronic entropy
     S(vib)  - vibrational entropy
     S(rot)  - rotational entropy
     S(trans)- translational entropy
The entropies will be listed as multiplied by the temperature to get
units of energy

Electronic entropy                ...      0.00065446 Eh      0.41 kcal/mol
Vibrational entropy               ...      0.03385964 Eh     21.25 kcal/mol
Rotational entropy                ...      0.01653673 Eh     10.38 kcal/mol
Translational entropy             ...      0.02081341 Eh     13.06 kcal/mol
-----------------------------------------------------------------------
Final entropy term                ...      0.07186423 Eh     45.10 kcal/mol

                             ****ORCA TERMINATED NORMALLY****
TOTAL RUN TIME: 0 days 0 hours 21 minutes 17 seconds 908 msec
