                         Program Version 6.0.1  -  RELEASE   -
|  1> !r2scanh def2-TZVP opt d3 TightSCF SlowConv defgrid2
|  2>
|  3> %pal
|  4> nprocs 20
|  5> end
|  6>
|  7> %scf
|  8> MaxIter 1500
|  9> end
| 10>
| 11> %maxcore 8000 #verificar
| 12>
| 13> !CPCM
| 14> %cpcm smd true
| 15> SMDsolvent "ACETONITRILE"
| 16> end
| 17>
| 18> * xyz -1 1
| 19> 6        4.790427000     -0.033865800     -0.529943200
| 20> 8        5.449345000     -1.206924000     -0.894594600
| 21> 8        4.978223000      1.323071000     -0.737377200
| 22> 6        3.506687600     -0.338741600      0.376153800
| 23> 6        2.222300000      0.400524800     -0.110681600
| 24> 6        0.900506800     -0.386389800      0.175703000
| 25> 6       -0.395261200      0.487294000      0.065549000
| 26> 6       -1.705693600     -0.364773800     -0.068373600
| 27> 6       -3.005136200      0.445344800      0.258164000
| 28> 6       -4.319880200     -0.214526000     -0.270540800
| 29> 9        3.211587400     -1.692050400      0.412735200
| 30> 9        3.741061800      0.055285800      1.689948800
| 31> 9        2.125696800      1.616867800      0.483236600
| 32> 9        2.314152400      0.589704000     -1.455769200
| 33> 9        0.794028800     -1.413561400     -0.700839000
| 34> 9        0.958350600     -0.884509000      1.435093400
| 35> 9       -0.498373400      1.260265600      1.173340200
| 36> 9       -0.299075000      1.289512600     -1.020910800
| 37> 9       -1.641790400     -1.418189000      0.779523800
| 38> 9       -1.792381400     -0.831391600     -1.336863600
| 39> 9       -2.918792200      1.679227200     -0.295171200
| 40> 9       -3.119771000      0.573779800      1.598579800
| 41> 9       -4.383115600     -1.504377600      0.089127600
| 42> 9       -5.365669800      0.430528600      0.260394200
| 43> 9       -4.396020400     -0.128550600     -1.602941800
| 44> *
| 45>
| 46>                          ****END OF INPUT****
 Total Charge           Charge          ....   -1
 Multiplicity           Mult            ....    1
 Number of Electrons    NEL             ....  200
Dispersion correction           -0.008399133
FINAL SINGLE POINT ENERGY     -1952.959170893902
Dispersion correction             ... done (  0.0 sec)
Dispersion correction           -0.008459624
FINAL SINGLE POINT ENERGY     -1953.006907529647
Dispersion correction             ... done (  0.0 sec)
Dispersion correction           -0.008483579
FINAL SINGLE POINT ENERGY     -1953.012030407671
Dispersion correction             ... done (  0.0 sec)
FINAL SINGLE POINT ENERGY     -1953.015430038525
FINAL SINGLE POINT ENERGY     -1953.012544065343
FINAL SINGLE POINT ENERGY     -1953.015765926343
FINAL SINGLE POINT ENERGY     -1953.015821177876
FINAL SINGLE POINT ENERGY     -1953.015875957425
FINAL SINGLE POINT ENERGY     -1953.015913562110
FINAL SINGLE POINT ENERGY     -1953.015932555475
Dispersion correction             ... done (  0.0 sec)
Dispersion correction           -0.008485852
FINAL SINGLE POINT ENERGY     -1953.015938258762
Dispersion correction             ... done (  0.0 sec)
Dispersion correction           -0.008486141
FINAL SINGLE POINT ENERGY     -1953.015940027535
Dispersion correction             ... done (  0.0 sec)
                    ***********************HURRAY********************

CARTESIAN COORDINATES (ANGSTROEM)
---------------------------------
  C      4.777456    0.107992   -0.411338
  O      5.358632   -0.764232   -1.063863
  O      5.015713    1.311465   -0.238711
  C      3.486833   -0.369723    0.352071
  C      2.203596    0.299417   -0.192376
  C      0.883313   -0.438856    0.176023
  C     -0.386015    0.451788    0.020064
  C     -1.704180   -0.376729   -0.056452
  C     -2.969297    0.471581    0.264562
  C     -4.293126   -0.165508   -0.239690
  F      3.305397   -1.714537    0.268441
  F      3.581359   -0.073390    1.677295
  F      2.115652    1.560328    0.269607
  F      2.283897    0.342701   -1.539223
  F      0.745160   -1.514882   -0.617948
  F      0.946267   -0.847860    1.453761
  F     -0.462789    1.282556    1.072027
  F     -0.283242    1.179059   -1.102641
  F     -1.645208   -1.388110    0.823403
  F     -1.823082   -0.885618   -1.292360
  F     -2.858370    1.682195   -0.303686
  F     -3.064865    0.619677    1.591956
  F     -4.362491   -1.441520    0.124610
  F     -5.314885    0.490207    0.297745
  F     -4.384319   -0.084445   -1.559733

 Multiplicity           Mult            ....    1
 Number of Electrons    NEL             ....  200
 Basis Dimension        Dim             ....  775

ORBITAL ENERGIES
----------------

  NO   OCC          E(Eh)            E(eV)
   0   2.0000     -24.732250      -672.9987
   1   2.0000     -24.731530      -672.9792
   2   2.0000     -24.731271      -672.9721
   3   2.0000     -24.731106      -672.9676
   4   2.0000     -24.731062      -672.9664
   5   2.0000     -24.730444      -672.9496
   6   2.0000     -24.730140      -672.9413
   7   2.0000     -24.728464      -672.8957
   8   2.0000     -24.728337      -672.8923
   9   2.0000     -24.722929      -672.7451
  10   2.0000     -24.722157      -672.7241
  11   2.0000     -24.711238      -672.4270
  12   2.0000     -24.711044      -672.4217
  13   2.0000     -24.686393      -671.7509
  14   2.0000     -24.686040      -671.7413
  15   2.0000     -19.049425      -518.3612
  16   2.0000     -19.047515      -518.3092
  17   2.0000     -10.439885      -284.0837
  18   2.0000     -10.386316      -282.6260
  19   2.0000     -10.384974      -282.5895
  20   2.0000     -10.382922      -282.5337
  21   2.0000     -10.375599      -282.3344
  22   2.0000     -10.359992      -281.9097
  23   2.0000     -10.322325      -280.8848
  24   2.0000     -10.233624      -278.4711
  25   2.0000      -1.361564       -37.0500
  26   2.0000      -1.337724       -36.4013
  27   2.0000      -1.322144       -35.9774
  28   2.0000      -1.314248       -35.7625
  29   2.0000      -1.310138       -35.6507
  30   2.0000      -1.298172       -35.3251
  31   2.0000      -1.273233       -34.6464
  32   2.0000      -1.269831       -34.5539
  33   2.0000      -1.266843       -34.4725
  34   2.0000      -1.266152       -34.4537
  35   2.0000      -1.259467       -34.2718
  36   2.0000      -1.255943       -34.1759
  37   2.0000      -1.251697       -34.0604
  38   2.0000      -1.239783       -33.7362
  39   2.0000      -1.211192       -32.9582
  40   2.0000      -1.029089       -28.0029
  41   2.0000      -0.944754       -25.7081
  42   2.0000      -0.844984       -22.9932
  43   2.0000      -0.822201       -22.3732
  44   2.0000      -0.791819       -21.5465
  45   2.0000      -0.752817       -20.4852
  46   2.0000      -0.709784       -19.3142
  47   2.0000      -0.681010       -18.5312
  48   2.0000      -0.662621       -18.0308
  49   2.0000      -0.641520       -17.4566
  50   2.0000      -0.636761       -17.3271
  51   2.0000      -0.628948       -17.1145
  52   2.0000      -0.619886       -16.8680
  53   2.0000      -0.615731       -16.7549
  54   2.0000      -0.613910       -16.7053
  55   2.0000      -0.601273       -16.3615
  56   2.0000      -0.597155       -16.2494
  57   2.0000      -0.592601       -16.1255
  58   2.0000      -0.586089       -15.9483
  59   2.0000      -0.574238       -15.6258
  60   2.0000      -0.571089       -15.5401
  61   2.0000      -0.565185       -15.3795
  62   2.0000      -0.554770       -15.0961
  63   2.0000      -0.540138       -14.6979
  64   2.0000      -0.504104       -13.7174
  65   2.0000      -0.500201       -13.6112
  66   2.0000      -0.494543       -13.4572
  67   2.0000      -0.490613       -13.3503
  68   2.0000      -0.486473       -13.2376
  69   2.0000      -0.483005       -13.1432
  70   2.0000      -0.478595       -13.0232
  71   2.0000      -0.472423       -12.8553
  72   2.0000      -0.468577       -12.7506
  73   2.0000      -0.466295       -12.6885
  74   2.0000      -0.463901       -12.6234
  75   2.0000      -0.457274       -12.4431
  76   2.0000      -0.454389       -12.3645
  77   2.0000      -0.449229       -12.2241
  78   2.0000      -0.447320       -12.1722
  79   2.0000      -0.443545       -12.0695
  80   2.0000      -0.438397       -11.9294
  81   2.0000      -0.437601       -11.9077
  82   2.0000      -0.434582       -11.8256
  83   2.0000      -0.429996       -11.7008
  84   2.0000      -0.428955       -11.6725
  85   2.0000      -0.426174       -11.5968
  86   2.0000      -0.423176       -11.5152
  87   2.0000      -0.419628       -11.4187
  88   2.0000      -0.418064       -11.3761
  89   2.0000      -0.410951       -11.1825
  90   2.0000      -0.401766       -10.9326
  91   2.0000      -0.397932       -10.8283
  92   2.0000      -0.388453       -10.5703
  93   2.0000      -0.385527       -10.4907
  94   2.0000      -0.375438       -10.2162
  95   2.0000      -0.356433        -9.6990
  96   2.0000      -0.324474        -8.8294
  97   2.0000      -0.241734        -6.5779
  98   2.0000      -0.225521        -6.1367
  99   2.0000      -0.223381        -6.0785
 100   0.0000      -0.013686        -0.3724
 101   0.0000       0.000352         0.0096
 102   0.0000       0.020523         0.5585
 103   0.0000       0.050918         1.3856
 104   0.0000       0.052183         1.4200

MULLIKEN ATOMIC CHARGES
-----------------------
   0 C :    0.212176
   1 O :   -0.508703
   2 O :   -0.523140
   3 C :    0.343758
   4 C :    0.299413
   5 C :    0.327778
   6 C :    0.322601
   7 C :    0.298975
   8 C :    0.330232
   9 C :    0.471025
  10 F :   -0.207471
  11 F :   -0.213446
  12 F :   -0.179008
  13 F :   -0.185766
  14 F :   -0.171672
  15 F :   -0.169993
  16 F :   -0.166145
  17 F :   -0.165334
  18 F :   -0.164195
  19 F :   -0.164082
  20 F :   -0.163225
  21 F :   -0.160006
  22 F :   -0.156118
  23 F :   -0.153521
  24 F :   -0.154135
Sum of atomic charges:   -1.0000000

LOEWDIN ATOMIC CHARGES
----------------------
   0 C :   -0.696497
   1 O :   -0.047818
   2 O :   -0.054644
   3 C :   -0.450986
   4 C :   -0.468722
   5 C :   -0.470026
   6 C :   -0.471086
   7 C :   -0.472167
   8 C :   -0.479088
   9 C :   -0.679456
  10 F :    0.170811
  11 F :    0.163783
  12 F :    0.216643
  13 F :    0.210712
  14 F :    0.223091
  15 F :    0.225167
  16 F :    0.229220
  17 F :    0.230742
  18 F :    0.231831
  19 F :    0.231181
  20 F :    0.230265
  21 F :    0.231851
  22 F :    0.230656
  23 F :    0.231578
  24 F :    0.232959

  Mayer bond orders larger than 0.100000
B(  0-C ,  1-O ) :   1.8539 B(  0-C ,  2-O ) :   1.8243 B(  0-C ,  3-C ) :   0.8375
B(  3-C ,  4-C ) :   0.9321 B(  3-C , 10-F ) :   1.0342 B(  3-C , 11-F ) :   1.0261
B(  4-C ,  5-C ) :   0.9237 B(  4-C , 12-F ) :   1.0635 B(  4-C , 13-F ) :   1.0593
B(  5-C ,  6-C ) :   0.9345 B(  5-C , 14-F ) :   1.0690 B(  5-C , 15-F ) :   1.0806
B(  6-C ,  7-C ) :   0.9299 B(  6-C , 16-F ) :   1.0775 B(  6-C , 17-F ) :   1.0814
B(  7-C ,  8-C ) :   0.9357 B(  7-C , 18-F ) :   1.0812 B(  7-C , 19-F ) :   1.0898
B(  8-C ,  9-C ) :   0.9537 B(  8-C , 20-F ) :   1.0822 B(  8-C , 21-F ) :   1.0980
B(  9-C , 22-F ) :   1.1286 B(  9-C , 23-F ) :   1.1336 B(  9-C , 24-F ) :   1.1426

Dispersion correction           -0.008486219
FINAL SINGLE POINT ENERGY     -1953.015940152113

DIPOLE MOMENT
-------------

Method             : SCF
Type of density    : Electron Density
Multiplicity       :   1
Irrep              :   0
Energy             : -1953.0074539327272305 Eh
Relativity type    :
Basis              : AO
                                X                 Y                 Z
Electronic contribution:    -18.653199832      -0.879438891       1.912423120
Nuclear contribution   :      9.771523150       0.523070698      -1.089905145
                        -----------------------------------------
Total Dipole Moment    :     -8.881676682      -0.356368193       0.822517975
                        -----------------------------------------
Magnitude (a.u.)       :      8.926797567
Magnitude (Debye)      :     22.690116202

Rotational constants in cm-1:             0.021447             0.003785             0.003731
Rotational constants in MHz :           642.959636           113.464324           111.865419

                             ****ORCA TERMINATED NORMALLY****
TOTAL RUN TIME: 0 days 0 hours 14 minutes 48 seconds 346 msec
