                         Program Version 6.0.1  -  RELEASE   -
|  1> !r2scanh def2-TZVP freq d3 TightSCF SlowConv defgrid2
|  2>
|  3> %pal
|  4> nprocs 20
|  5> end
|  6>
|  7> %scf
|  8> MaxIter 1500
|  9> end
| 10>
| 11> %maxcore 8000
| 12>
| 13> !CPCM
| 14> %cpcm smd true
| 15> SMDsolvent "ACETONITRILE"
| 16> end
| 17>
| 18> * xyz -1 2
| 19> 6        4.835201000      0.039013000     -0.250685000
| 20> 8        5.202158000     -0.354253000     -1.390952000
| 21> 8        5.151927000      1.350643000      0.171287000
| 22> 1        5.635632000      1.722405000     -0.578539000
| 23> 6        3.548180000     -0.393124000      0.359997000
| 24> 6        2.228250000      0.233087000     -0.185205000
| 25> 6        0.887680000     -0.459319000      0.197054000
| 26> 6       -0.377165000      0.426957000      0.005039000
| 27> 6       -1.708893000     -0.380089000     -0.039700000
| 28> 6       -2.964881000      0.495263000      0.237731000
| 29> 6       -4.296398000     -0.145895000     -0.238827000
| 30> 9        3.398934000     -1.747737000      0.189597000
| 31> 9        3.530570000     -0.137362000      1.712781000
| 32> 9        2.162356000      1.518341000      0.236924000
| 33> 9        2.290762000      0.239357000     -1.536757000
| 34> 9        0.742880000     -1.566043000     -0.559260000
| 35> 9        0.929412000     -0.828628000      1.492077000
| 36> 9       -0.445869000      1.305869000      1.020546000
| 37> 9       -0.269020000      1.107465000     -1.149692000
| 38> 9       -1.670343000     -1.354520000      0.884074000
| 39> 9       -1.832979000     -0.941877000     -1.253269000
| 40> 9       -2.839121000      1.677726000     -0.386028000
| 41> 9       -3.062836000      0.706563000      1.556950000
| 42> 9       -4.384582000     -1.402962000      0.183134000
| 43> 9       -5.310975000      0.546926000      0.266108000
| 44> 9       -4.385908000     -0.124062000     -1.561513000
| 45> *
| 46>
| 47>                          ****END OF INPUT****

CARTESIAN COORDINATES (ANGSTROEM)
---------------------------------
  C      4.835201    0.039013   -0.250685
  O      5.202158   -0.354253   -1.390952
  O      5.151927    1.350643    0.171287
  H      5.635632    1.722405   -0.578539
  C      3.548180   -0.393124    0.359997
  C      2.228250    0.233087   -0.185205
  C      0.887680   -0.459319    0.197054
  C     -0.377165    0.426957    0.005039
  C     -1.708893   -0.380089   -0.039700
  C     -2.964881    0.495263    0.237731
  C     -4.296398   -0.145895   -0.238827
  F      3.398934   -1.747737    0.189597
  F      3.530570   -0.137362    1.712781
  F      2.162356    1.518341    0.236924
  F      2.290762    0.239357   -1.536757
  F      0.742880   -1.566043   -0.559260
  F      0.929412   -0.828628    1.492077
  F     -0.445869    1.305869    1.020546
  F     -0.269020    1.107465   -1.149692
  F     -1.670343   -1.354520    0.884074
  F     -1.832979   -0.941877   -1.253269
  F     -2.839121    1.677726   -0.386028
  F     -3.062836    0.706563    1.556950
  F     -4.384582   -1.402962    0.183134
  F     -5.310975    0.546926    0.266108
  F     -4.385908   -0.124062   -1.561513

 Total Charge           Charge          ....   -1
 Multiplicity           Mult            ....    2
 Number of Electrons    NEL             ....  201
 Basis Dimension        Dim             ....  781

ORBITAL ENERGIES
----------------
                 SPIN UP ORBITALS
  NO   OCC          E(Eh)            E(eV)
   0   1.0000     -24.731370      -672.9748
   1   1.0000     -24.730239      -672.9440
   2   1.0000     -24.729795      -672.9319
   3   1.0000     -24.729521      -672.9245
   4   1.0000     -24.728649      -672.9007
   5   1.0000     -24.728543      -672.8979
   6   1.0000     -24.727850      -672.8790
   7   1.0000     -24.723961      -672.7732
   8   1.0000     -24.722803      -672.7417
   9   1.0000     -24.715563      -672.5447
  10   1.0000     -24.713571      -672.4904
  11   1.0000     -24.700986      -672.1480
  12   1.0000     -24.698337      -672.0759
  13   1.0000     -24.676040      -671.4692
  14   1.0000     -24.672571      -671.3748
  15   1.0000     -19.102165      -519.7963
  16   1.0000     -19.038056      -518.0518
  17   1.0000     -10.438739      -284.0525
  18   1.0000     -10.382983      -282.5353
  19   1.0000     -10.382657      -282.5265
  20   1.0000     -10.376766      -282.3662
  21   1.0000     -10.365793      -282.0676
  22   1.0000     -10.345750      -281.5222
  23   1.0000     -10.316526      -280.7269
  24   1.0000     -10.206684      -277.7380
  25   1.0000      -1.360445       -37.0196
  26   1.0000      -1.332984       -36.2724
  27   1.0000      -1.316913       -35.8350
  28   1.0000      -1.310659       -35.6648
  29   1.0000      -1.302147       -35.4332
  30   1.0000      -1.285831       -34.9892
  31   1.0000      -1.271471       -34.5985
  32   1.0000      -1.265623       -34.4394
  33   1.0000      -1.263046       -34.3692
  34   1.0000      -1.256135       -34.1812
  35   1.0000      -1.253363       -34.1057
  36   1.0000      -1.251706       -34.0606
  37   1.0000      -1.243477       -33.8367
  38   1.0000      -1.227581       -33.4042
  39   1.0000      -1.198850       -32.6224
  40   1.0000      -1.034017       -28.1370
  41   1.0000      -0.944741       -25.7077
  42   1.0000      -0.841203       -22.8903
  43   1.0000      -0.815934       -22.2027
  44   1.0000      -0.785300       -21.3691
  45   1.0000      -0.750791       -20.4301
  46   1.0000      -0.711682       -19.3658
  47   1.0000      -0.681614       -18.5477
  48   1.0000      -0.660965       -17.9858
  49   1.0000      -0.638288       -17.3687
  50   1.0000      -0.634234       -17.2584
  51   1.0000      -0.627177       -17.0664
  52   1.0000      -0.616588       -16.7782
  53   1.0000      -0.611428       -16.6378
  54   1.0000      -0.609954       -16.5977
  55   1.0000      -0.600515       -16.3409
  56   1.0000      -0.595161       -16.1952
  57   1.0000      -0.587345       -15.9825
  58   1.0000      -0.580588       -15.7986
  59   1.0000      -0.573199       -15.5975
  60   1.0000      -0.569152       -15.4874
  61   1.0000      -0.559601       -15.2275
  62   1.0000      -0.555193       -15.1076
  63   1.0000      -0.530619       -14.4389
  64   1.0000      -0.501712       -13.6523
  65   1.0000      -0.496950       -13.5227
  66   1.0000      -0.491595       -13.3770
  67   1.0000      -0.488312       -13.2876
  68   1.0000      -0.485796       -13.2192
  69   1.0000      -0.484550       -13.1853
  70   1.0000      -0.476823       -12.9750
  71   1.0000      -0.472404       -12.8548
  72   1.0000      -0.468515       -12.7490
  73   1.0000      -0.463882       -12.6229
  74   1.0000      -0.461496       -12.5579
  75   1.0000      -0.457021       -12.4362
  76   1.0000      -0.449404       -12.2289
  77   1.0000      -0.447771       -12.1845
  78   1.0000      -0.444870       -12.1055
  79   1.0000      -0.437018       -11.8919
  80   1.0000      -0.436011       -11.8645
  81   1.0000      -0.434046       -11.8110
  82   1.0000      -0.430525       -11.7152
  83   1.0000      -0.429699       -11.6927
  84   1.0000      -0.426145       -11.5960
  85   1.0000      -0.425322       -11.5736
  86   1.0000      -0.422828       -11.5057
  87   1.0000      -0.415502       -11.3064
  88   1.0000      -0.411582       -11.1997
  89   1.0000      -0.405839       -11.0434
  90   1.0000      -0.402903       -10.9636
  91   1.0000      -0.395916       -10.7734
  92   1.0000      -0.388120       -10.5613
  93   1.0000      -0.379755       -10.3337
  94   1.0000      -0.376562       -10.2468
  95   1.0000      -0.353249        -9.6124
  96   1.0000      -0.336336        -9.1522
  97   1.0000      -0.313234        -8.5235
  98   1.0000      -0.272676        -7.4199
  99   1.0000      -0.223697        -6.0871
 100   1.0000      -0.094267        -2.5651
 101   0.0000      -0.007727        -0.2103
 102   0.0000       0.006013         0.1636
 103   0.0000       0.040163         1.0929
 104   0.0000       0.053582         1.4580
 105   0.0000       0.084707         2.3050

                 SPIN DOWN ORBITALS
  NO   OCC          E(Eh)            E(eV)
   0   1.0000     -24.731369      -672.9748
   1   1.0000     -24.730238      -672.9440
   2   1.0000     -24.729780      -672.9315
   3   1.0000     -24.729498      -672.9239
   4   1.0000     -24.728644      -672.9006
   5   1.0000     -24.728531      -672.8975
   6   1.0000     -24.727819      -672.8782
   7   1.0000     -24.723940      -672.7726
   8   1.0000     -24.722747      -672.7401
   9   1.0000     -24.715527      -672.5437
  10   1.0000     -24.713493      -672.4883
  11   1.0000     -24.700932      -672.1465
  12   1.0000     -24.698240      -672.0733
  13   1.0000     -24.675599      -671.4572
  14   1.0000     -24.671975      -671.3586
  15   1.0000     -19.099551      -519.7252
  16   1.0000     -19.029336      -517.8146
  17   1.0000     -10.438711      -284.0518
  18   1.0000     -10.382922      -282.5337
  19   1.0000     -10.382520      -282.5227
  20   1.0000     -10.376492      -282.3587
  21   1.0000     -10.365137      -282.0497
  22   1.0000     -10.344474      -281.4874
  23   1.0000     -10.315630      -280.7026
  24   1.0000     -10.197583      -277.4903
  25   1.0000      -1.360417       -37.0188
  26   1.0000      -1.332840       -36.2684
  27   1.0000      -1.316767       -35.8310
  28   1.0000      -1.310568       -35.6624
  29   1.0000      -1.301924       -35.4272
  30   1.0000      -1.285494       -34.9801
  31   1.0000      -1.271452       -34.5980
  32   1.0000      -1.265594       -34.4386
  33   1.0000      -1.262998       -34.3679
  34   1.0000      -1.256059       -34.1791
  35   1.0000      -1.252585       -34.0846
  36   1.0000      -1.251182       -34.0464
  37   1.0000      -1.243331       -33.8328
  38   1.0000      -1.227406       -33.3994
  39   1.0000      -1.197812       -32.5941
  40   1.0000      -1.026143       -27.9228
  41   1.0000      -0.932737       -25.3811
  42   1.0000      -0.840273       -22.8650
  43   1.0000      -0.813797       -22.1446
  44   1.0000      -0.781990       -21.2790
  45   1.0000      -0.746756       -20.3203
  46   1.0000      -0.708304       -19.2739
  47   1.0000      -0.679894       -18.5009
  48   1.0000      -0.658700       -17.9241
  49   1.0000      -0.638156       -17.3651
  50   1.0000      -0.633845       -17.2478
  51   1.0000      -0.627119       -17.0648
  52   1.0000      -0.615172       -16.7397
  53   1.0000      -0.610379       -16.6093
  54   1.0000      -0.608732       -16.5645
  55   1.0000      -0.596919       -16.2430
  56   1.0000      -0.594914       -16.1884
  57   1.0000      -0.585510       -15.9325
  58   1.0000      -0.580318       -15.7913
  59   1.0000      -0.570053       -15.5119
  60   1.0000      -0.568556       -15.4712
  61   1.0000      -0.558226       -15.1901
  62   1.0000      -0.552576       -15.0364
  63   1.0000      -0.529361       -14.4046
  64   1.0000      -0.501645       -13.6505
  65   1.0000      -0.496899       -13.5213
  66   1.0000      -0.491502       -13.3744
  67   1.0000      -0.487294       -13.2599
  68   1.0000      -0.484539       -13.1850
  69   1.0000      -0.484144       -13.1742
  70   1.0000      -0.476289       -12.9605
  71   1.0000      -0.471898       -12.8410
  72   1.0000      -0.468431       -12.7467
  73   1.0000      -0.463771       -12.6199
  74   1.0000      -0.461154       -12.5486
  75   1.0000      -0.456730       -12.4283
  76   1.0000      -0.449106       -12.2208
  77   1.0000      -0.447657       -12.1814
  78   1.0000      -0.443936       -12.0801
  79   1.0000      -0.436871       -11.8879
  80   1.0000      -0.435842       -11.8599
  81   1.0000      -0.433541       -11.7973
  82   1.0000      -0.430358       -11.7106
  83   1.0000      -0.426076       -11.5941
  84   1.0000      -0.425517       -11.5789
  85   1.0000      -0.422908       -11.5079
  86   1.0000      -0.422160       -11.4876
  87   1.0000      -0.414713       -11.2849
  88   1.0000      -0.411071       -11.1858
  89   1.0000      -0.404574       -11.0090
  90   1.0000      -0.401202       -10.9173
  91   1.0000      -0.391399       -10.6505
  92   1.0000      -0.386445       -10.5157
  93   1.0000      -0.377945       -10.2844
  94   1.0000      -0.357774        -9.7355
  95   1.0000      -0.346842        -9.4381
  96   1.0000      -0.324583        -8.8323
  97   1.0000      -0.308563        -8.3964
  98   1.0000      -0.242831        -6.6078
  99   1.0000      -0.217021        -5.9054
 100   0.0000      -0.019401        -0.5279
 101   0.0000       0.003682         0.1002
 102   0.0000       0.016173         0.4401
 103   0.0000       0.045745         1.2448
 104   0.0000       0.058148         1.5823

MULLIKEN ATOMIC CHARGES AND SPIN POPULATIONS
--------------------------------------------
   0 C :   -0.035138    0.563468
   1 O :   -0.578066    0.248725
   2 O :   -0.496239    0.036517
   3 H :    0.320754    0.010628
   4 C :    0.473411   -0.005024
   5 C :    0.247173    0.091650
   6 C :    0.319910    0.020856
   7 C :    0.322512    0.014407
   8 C :    0.298543    0.005329
   9 C :    0.328584    0.002538
  10 C :    0.471035    0.001013
  11 F :   -0.223152    0.001020
  12 F :   -0.227107    0.002962
  13 F :   -0.197537    0.000772
  14 F :   -0.195289    0.002156
  15 F :   -0.180898    0.000248
  16 F :   -0.178762    0.000696
  17 F :   -0.171628    0.000219
  18 F :   -0.171198    0.000870
  19 F :   -0.167179    0.000345
  20 F :   -0.167177    0.000130
  21 F :   -0.164705    0.000146
  22 F :   -0.161550    0.000064
  23 F :   -0.156824   -0.000010
  24 F :   -0.154575    0.000277
  25 F :   -0.154897    0.000000
Sum of atomic charges         :   -1.0000000

LOEWDIN ATOMIC CHARGES AND SPIN POPULATIONS
-------------------------------------------
   0 C :   -0.627158    0.425819
   1 O :   -0.123694    0.229498
   2 O :   -0.037677    0.065243
   3 H :    0.173430    0.009691
   4 C :   -0.500419    0.131269
   5 C :   -0.467030    0.056868
   6 C :   -0.473684    0.031190
   7 C :   -0.471599    0.014241
   8 C :   -0.472550    0.006999
   9 C :   -0.479363    0.002972
  10 C :   -0.679287    0.001019
  11 F :    0.150475    0.007256
  12 F :    0.139383    0.010001
  13 F :    0.195344    0.001109
  14 F :    0.197600    0.001544
  15 F :    0.212069    0.001012
  16 F :    0.212602    0.001383
  17 F :    0.223161    0.000484
  18 F :    0.222916    0.000806
  19 F :    0.227748    0.000505
  20 F :    0.227713    0.000283
  21 F :    0.227982    0.000232
  22 F :    0.230074    0.000121
  23 F :    0.229905    0.000030
  24 F :    0.229989    0.000393
  25 F :    0.232068    0.000031

  Mayer bond orders larger than 0.100000
B(  0-C ,  1-O ) :   1.7794 B(  0-C ,  2-O ) :   1.0455 B(  0-C ,  4-C ) :   0.9032
B(  0-C ,  5-C ) :   0.1012 B(  2-O ,  3-H ) :   0.8643 B(  4-C ,  5-C ) :   0.8255
B(  4-C , 11-F ) :   1.0042 B(  4-C , 12-F ) :   0.9999 B(  5-C ,  6-C ) :   0.8977
B(  5-C , 13-F ) :   1.0479 B(  5-C , 14-F ) :   1.0680 B(  6-C ,  7-C ) :   0.9273
B(  6-C , 15-F ) :   1.0594 B(  6-C , 16-F ) :   1.0757 B(  7-C ,  8-C ) :   0.9259
B(  7-C , 17-F ) :   1.0709 B(  7-C , 18-F ) :   1.0765 B(  8-C ,  9-C ) :   0.9350
B(  8-C , 19-F ) :   1.0795 B(  8-C , 20-F ) :   1.0862 B(  9-C , 10-C ) :   0.9540
B(  9-C , 21-F ) :   1.0815 B(  9-C , 22-F ) :   1.0966 B( 10-C , 23-F ) :   1.1285
B( 10-C , 24-F ) :   1.1324 B( 10-C , 25-F ) :   1.1420

Dispersion correction           -0.008664290
FINAL SINGLE POINT ENERGY     -1953.543799307491

DIPOLE MOMENT
-------------

Method             : SCF
Type of density    : Electron Density
Multiplicity       :   2
Irrep              :   0
Energy             : -1953.5351350179000747 Eh
Relativity type    :
Basis              : AO
                                X                 Y                 Z
Electronic contribution:    -22.774271138      -1.758114582       1.946563274
Nuclear contribution   :     15.312787644       2.447211639      -1.521501458
                        -----------------------------------------
Total Dipole Moment    :     -7.461483494       0.689097057       0.425061816
                        -----------------------------------------
Magnitude (a.u.)       :      7.505282688
Magnitude (Debye)      :     19.076912526

VIBRATIONAL FREQUENCIES
-----------------------

Scaling factor for frequencies =  1.000000000  (already applied!)

     0:       0.00 cm**-1
     1:       0.00 cm**-1
     2:       0.00 cm**-1
     3:       0.00 cm**-1
     4:       0.00 cm**-1
     5:       0.00 cm**-1
     6:      15.32 cm**-1
     7:      27.81 cm**-1
     8:      37.10 cm**-1
     9:      42.34 cm**-1
    10:      60.43 cm**-1
    11:      67.31 cm**-1
    12:      67.46 cm**-1
    13:      84.76 cm**-1
    14:     111.08 cm**-1
    15:     128.70 cm**-1
    16:     154.72 cm**-1
    17:     191.85 cm**-1
    18:     193.83 cm**-1
    19:     200.32 cm**-1
    20:     212.78 cm**-1
    21:     229.85 cm**-1
    22:     244.11 cm**-1
    23:     248.06 cm**-1
    24:     257.32 cm**-1
    25:     259.42 cm**-1
    26:     264.42 cm**-1
    27:     287.87 cm**-1
    28:     309.54 cm**-1
    29:     317.67 cm**-1
    30:     339.20 cm**-1
    31:     352.63 cm**-1
    32:     358.29 cm**-1
    33:     365.17 cm**-1
    34:     367.19 cm**-1
    35:     374.70 cm**-1
    36:     379.50 cm**-1
    37:     417.50 cm**-1
    38:     463.68 cm**-1
    39:     471.22 cm**-1
    40:     518.45 cm**-1
    41:     530.78 cm**-1
    42:     532.16 cm**-1
    43:     559.93 cm**-1
    44:     565.47 cm**-1
    45:     575.75 cm**-1
    46:     598.24 cm**-1
    47:     611.89 cm**-1
    48:     630.47 cm**-1
    49:     654.07 cm**-1
    50:     688.16 cm**-1
    51:     700.50 cm**-1
    52:     727.31 cm**-1
    53:     759.29 cm**-1
    54:     828.43 cm**-1
    55:     934.47 cm**-1
    56:     998.83 cm**-1
    57:    1037.99 cm**-1
    58:    1064.66 cm**-1
    59:    1117.86 cm**-1
    60:    1123.03 cm**-1
    61:    1130.16 cm**-1
    62:    1140.91 cm**-1
    63:    1146.09 cm**-1
    64:    1158.26 cm**-1
    65:    1164.66 cm**-1
    66:    1170.30 cm**-1
    67:    1182.39 cm**-1
    68:    1186.12 cm**-1
    69:    1204.36 cm**-1
    70:    1207.55 cm**-1
    71:    1241.39 cm**-1
    72:    1265.34 cm**-1
    73:    1269.20 cm**-1
    74:    1301.39 cm**-1
    75:    1359.74 cm**-1
    76:    1562.11 cm**-1
    77:    3749.15 cm**-1

IR SPECTRUM
-----------

 Mode   freq       eps      Int      T**2         TX        TY        TZ
       cm**-1   L/(mol*cm) km/mol    a.u.
----------------------------------------------------------------------------
  6:     15.32   0.000080    0.41  0.001635  ( 0.030293 -0.026763  0.001121)
  7:     27.81   0.000433    2.19  0.004861  (-0.031361  0.014998 -0.060434)
  8:     37.10   0.000152    0.77  0.001280  ( 0.009981 -0.034246  0.002763)
  9:     42.34   0.000330    1.67  0.002429  (-0.030817 -0.033463 -0.018963)
 10:     60.43   0.000089    0.45  0.000460  ( 0.017204 -0.006463  0.011078)
 11:     67.31   0.000308    1.56  0.001427  ( 0.029331  0.023446 -0.004089)
 12:     67.46   0.000035    0.18  0.000163  ( 0.001971  0.012470 -0.001783)
 13:     84.76   0.000568    2.87  0.002090  ( 0.034595 -0.008498  0.028648)
 14:    111.08   0.000885    4.47  0.002487  ( 0.046543  0.003298 -0.017596)
 15:    128.70   0.000485    2.45  0.001175  (-0.033087 -0.001624 -0.008812)
 16:    154.72   0.001021    5.16  0.002060  ( 0.043924  0.010310  0.004943)
 17:    191.85   0.002149   10.86  0.003496  (-0.001726  0.001863 -0.059069)
 18:    193.83   0.001590    8.04  0.002560  (-0.050380  0.003389  0.003278)
 19:    200.32   0.000179    0.90  0.000278  (-0.011714 -0.003456 -0.011370)
 20:    212.78   0.000597    3.01  0.000875  (-0.000110  0.026392 -0.013358)
 21:    229.85   0.000088    0.45  0.000120  (-0.001628  0.001317 -0.010736)
 22:    244.11   0.001829    9.24  0.002338  ( 0.039911 -0.008554  0.025921)
 23:    248.06   0.000133    0.67  0.000167  ( 0.003375 -0.006443  0.010698)
 24:    257.32   0.008440   42.65  0.010235  ( 0.093452 -0.015787  0.035396)
 25:    259.42   0.002901   14.66  0.003490  (-0.056195  0.011257 -0.014338)
 26:    264.42   0.026122  132.01  0.030829  ( 0.165739 -0.030823  0.049082)
 27:    287.87   0.001216    6.14  0.001318  ( 0.033880 -0.012719 -0.002911)
 28:    309.54   0.000128    0.65  0.000129  (-0.004413 -0.002003 -0.010295)
 29:    317.67   0.000095    0.48  0.000093  ( 0.002975  0.009176 -0.000017)
 30:    339.20   0.000057    0.29  0.000052  ( 0.001992 -0.005386 -0.004386)
 31:    352.63   0.001325    6.69  0.001172  (-0.030358 -0.015762  0.001516)
 32:    358.29   0.006179   31.23  0.005382  ( 0.064464  0.028617 -0.020178)
 33:    365.17   0.000724    3.66  0.000619  (-0.018168 -0.011539 -0.012481)
 34:    367.19   0.001375    6.95  0.001169  (-0.031965 -0.007785  0.009285)
 35:    374.70   0.001356    6.85  0.001129  (-0.022183 -0.025154  0.002115)
 36:    379.50   0.000227    1.15  0.000187  (-0.001720 -0.013496  0.001380)
 37:    417.50   0.000237    1.20  0.000177  ( 0.006059 -0.011733 -0.001598)
 38:    463.68   0.008406   42.48  0.005657  ( 0.067683  0.031640 -0.008669)
 39:    471.22   0.001288    6.51  0.000853  (-0.023482 -0.005002  0.016631)
 40:    518.45   0.003435   17.36  0.002068  ( 0.037920  0.024014 -0.007281)
 41:    530.78   0.006259   31.63  0.003680  (-0.058116 -0.013333  0.011173)
 42:    532.16   0.006232   31.49  0.003655  ( 0.031359 -0.051631 -0.002318)
 43:    559.93   0.001805    9.12  0.001006  (-0.026783 -0.016791  0.002622)
 44:    565.47   0.005367   27.12  0.002962  ( 0.053511 -0.008871  0.004441)
 45:    575.75   0.024435  123.49  0.013244  ( 0.110526  0.030285  0.010532)
 46:    598.24   0.000676    3.42  0.000353  (-0.011027 -0.002324 -0.015026)
 47:    611.89   0.001263    6.38  0.000644  ( 0.022173 -0.012352  0.000316)
 48:    630.47   0.005978   30.21  0.002959  ( 0.052730  0.007620 -0.010980)
 49:    654.07   0.032260  163.03  0.015391  (-0.123441 -0.012403 -0.000274)
 50:    688.16   0.024520  123.91  0.011119  (-0.104684  0.006258 -0.011013)
 51:    700.50   0.016916   85.48  0.007536  (-0.086365  0.000940  0.008710)
 52:    727.31   0.000683    3.45  0.000293  (-0.016703  0.003721 -0.000225)
 53:    759.29   0.002970   15.01  0.001221  ( 0.034559  0.003292 -0.003958)
 54:    828.43   0.033640  170.00  0.012672  ( 0.102860  0.043374  0.014502)
 55:    934.47   0.076741  387.82  0.025628  ( 0.147598  0.060172  0.014884)
 56:    998.83   0.064413  325.52  0.020125  ( 0.012062  0.141133 -0.007795)
 57:   1037.99   0.043733  221.01  0.013148  (-0.014454 -0.053667 -0.100295)
 58:   1064.66   0.014041   70.96  0.004116  (-0.028512 -0.054362  0.018639)
 59:   1117.86   0.031058  156.95  0.008670  (-0.023352 -0.046782 -0.077047)
 60:   1123.03   0.019185   96.96  0.005331  (-0.025835  0.040979 -0.054630)
 61:   1130.16   0.012515   63.25  0.003456  (-0.044398  0.032690  0.020395)
 62:   1140.91   0.012484   63.09  0.003415  (-0.009423  0.025412  0.051768)
 63:   1146.09   0.068483  346.09  0.018647  ( 0.019334  0.130562 -0.035023)
 64:   1158.26   0.088962  449.58  0.023969  (-0.031764 -0.098870 -0.114824)
 65:   1164.66   0.061330  309.94  0.016433  ( 0.000543 -0.124559 -0.030292)
 66:   1170.30   0.079013  399.30  0.021069  (-0.000758  0.028289 -0.142366)
 67:   1182.39   0.078576  397.09  0.020738  ( 0.015226 -0.045341  0.135833)
 68:   1186.12   0.054278  274.30  0.014280  ( 0.048089 -0.101121 -0.041741)
 69:   1204.36   0.023236  117.42  0.006021  (-0.026348 -0.023336  0.069151)
 70:   1207.55   0.080310  405.85  0.020754  ( 0.021957  0.042977 -0.135739)
 71:   1241.39   0.024473  123.67  0.006152  (-0.040119  0.051928  0.042965)
 72:   1265.34   0.016148   81.61  0.003983  (-0.030927  0.014893  0.052955)
 73:   1269.20   0.010225   51.67  0.002514  (-0.028276  0.015375  0.038445)
 74:   1301.39   0.010631   53.73  0.002549  ( 0.036870  0.006160 -0.033941)
 75:   1359.74   0.096239  486.35  0.022087  ( 0.147749 -0.009150 -0.013177)
 76:   1562.11   0.114618  579.23  0.022897  (-0.108782  0.058291  0.087555)
 77:   3749.15   0.020110  101.63  0.001674  (-0.028803 -0.018797  0.022155)

--------------------------
THERMOCHEMISTRY AT 298.15K
--------------------------

Temperature         ...   298.15 K
Pressure            ...     1.00 atm
Total Mass          ...   414.06 AMU
Quasi RRHO          ...     True
Cut-Off Frequency   ...     1.00 cm^-1

Throughout the following assumptions are being made:
  (1) The electronic state is orbitally nondegenerate
      but the spin degeneracy is treated
  (2) There are no thermally accessible electronically excited states
  (3) Hindered rotations indicated by low frequency modes are not
      treated as such but are treated as vibrations and this may
      cause some error
  (4) All equations used are the standard statistical mechanics
      equations for an ideal gas
  (5) All vibrations are strictly harmonic

freq.      15.32  E(vib)   ...       0.57
freq.      27.81  E(vib)   ...       0.55
freq.      37.10  E(vib)   ...       0.54
freq.      42.34  E(vib)   ...       0.53
freq.      60.43  E(vib)   ...       0.51
freq.      67.31  E(vib)   ...       0.50
freq.      67.46  E(vib)   ...       0.50
freq.      84.76  E(vib)   ...       0.48
freq.     111.08  E(vib)   ...       0.45
freq.     128.70  E(vib)   ...       0.43
freq.     154.72  E(vib)   ...       0.40
freq.     191.85  E(vib)   ...       0.36
freq.     193.83  E(vib)   ...       0.36
freq.     200.32  E(vib)   ...       0.35
freq.     212.78  E(vib)   ...       0.34
freq.     229.85  E(vib)   ...       0.32
freq.     244.11  E(vib)   ...       0.31
freq.     248.06  E(vib)   ...       0.31
freq.     257.32  E(vib)   ...       0.30
freq.     259.42  E(vib)   ...       0.30
freq.     264.42  E(vib)   ...       0.29
freq.     287.87  E(vib)   ...       0.27
freq.     309.54  E(vib)   ...       0.26
freq.     317.67  E(vib)   ...       0.25
freq.     339.20  E(vib)   ...       0.23
freq.     352.63  E(vib)   ...       0.22
freq.     358.29  E(vib)   ...       0.22
freq.     365.17  E(vib)   ...       0.22
freq.     367.19  E(vib)   ...       0.22
freq.     374.70  E(vib)   ...       0.21
freq.     379.50  E(vib)   ...       0.21
freq.     417.50  E(vib)   ...       0.18
freq.     463.68  E(vib)   ...       0.16
freq.     471.22  E(vib)   ...       0.15
freq.     518.45  E(vib)   ...       0.13
freq.     530.78  E(vib)   ...       0.13
freq.     532.16  E(vib)   ...       0.13
freq.     559.93  E(vib)   ...       0.12
freq.     565.47  E(vib)   ...       0.11
freq.     575.75  E(vib)   ...       0.11
freq.     598.24  E(vib)   ...       0.10
freq.     611.89  E(vib)   ...       0.10
freq.     630.47  E(vib)   ...       0.09
freq.     654.07  E(vib)   ...       0.08
freq.     688.16  E(vib)   ...       0.07
freq.     700.50  E(vib)   ...       0.07
freq.     727.31  E(vib)   ...       0.06
freq.     759.29  E(vib)   ...       0.06
freq.     828.43  E(vib)   ...       0.04
freq.     934.47  E(vib)   ...       0.03
freq.     998.83  E(vib)   ...       0.02
freq.    1037.99  E(vib)   ...       0.02
freq.    1064.66  E(vib)   ...       0.02
freq.    1117.86  E(vib)   ...       0.01
freq.    1123.03  E(vib)   ...       0.01
freq.    1130.16  E(vib)   ...       0.01
freq.    1140.91  E(vib)   ...       0.01
freq.    1146.09  E(vib)   ...       0.01
freq.    1158.26  E(vib)   ...       0.01
freq.    1164.66  E(vib)   ...       0.01
freq.    1170.30  E(vib)   ...       0.01
freq.    1182.39  E(vib)   ...       0.01
freq.    1186.12  E(vib)   ...       0.01
freq.    1204.36  E(vib)   ...       0.01
freq.    1207.55  E(vib)   ...       0.01
freq.    1241.39  E(vib)   ...       0.01
freq.    1265.34  E(vib)   ...       0.01
freq.    1269.20  E(vib)   ...       0.01
freq.    1301.39  E(vib)   ...       0.01
freq.    1359.74  E(vib)   ...       0.01
freq.    1562.11  E(vib)   ...       0.00
freq.    3749.15  E(vib)   ...       0.00

------------
INNER ENERGY
------------

The inner energy is: U= E(el) + E(ZPE) + E(vib) + E(rot) + E(trans)
    E(el)   - is the total energy from the electronic structure calculation
              = E(kin-el) + E(nuc-el) + E(el-el) + E(nuc-nuc)
    E(ZPE)  - the the zero temperature vibrational energy from the frequency calculation
    E(vib)  - the the finite temperature correction to E(ZPE) due to population
              of excited vibrational states
    E(rot)  - is the rotational thermal energy
    E(trans)- is the translational thermal energy

Summary of contributions to the inner energy U:
Electronic energy                ...  -1953.54379931 Eh
Zero point energy                ...      0.10730171 Eh      67.33 kcal/mol
Thermal vibrational correction   ...      0.02102347 Eh      13.19 kcal/mol
Thermal rotational correction    ...      0.00141627 Eh       0.89 kcal/mol
Thermal translational correction ...      0.00141627 Eh       0.89 kcal/mol
-----------------------------------------------------------------------
Total thermal energy                  -1953.41264159 Eh

Summary of corrections to the electronic energy:
(perhaps to be used in another calculation)
Total thermal correction                  0.02385601 Eh      14.97 kcal/mol
Non-thermal (ZPE) correction              0.10730171 Eh      67.33 kcal/mol
-----------------------------------------------------------------------
Total correction                          0.13115772 Eh      82.30 kcal/mol

--------
ENTHALPY
--------

The enthalpy is H = U + kB*T
                kB is Boltzmann's constant
Total thermal energy              ...  -1953.41264159 Eh
Thermal Enthalpy correction       ...      0.00094421 Eh       0.59 kcal/mol
-----------------------------------------------------------------------
Total Enthalpy                    ...  -1953.41169738 Eh

Note: Only C1 symmetry has been detected, increase convergence thresholds
      if your molecule has a higher symmetry. Symmetry factor of 1.0 is
      used for the rotational entropy correction.

Note: Rotational entropy computed according to Herzberg
Infrared and Raman Spectra, Chapter V,1, Van Nostrand Reinhold, 1945
Point Group:  C1, Symmetry Number:   1
Rotational constants in cm-1:     0.021163     0.003730     0.003689

Vibrational entropy computed according to the QRRHO of S. Grimme
Chem.Eur.J. 2012 18 9955 using a reference frequency of 100.0 cm-1

-------
ENTROPY
-------

The entropy contributions are T*S = T*(S(el)+S(vib)+S(rot)+S(trans))
     S(el)   - electronic entropy
     S(vib)  - vibrational entropy
     S(rot)  - rotational entropy
     S(trans)- translational entropy
The entropies will be listed as multiplied by the temperature to get
units of energy

                             ****ORCA TERMINATED NORMALLY****
TOTAL RUN TIME: 0 days 0 hours 28 minutes 15 seconds 542 msec
