                         Program Version 6.0.1  -  RELEASE   -
|  1> !TPSSh def2-TZVP freq d3 TightSCF SlowConv defgrid2
|  2>
|  3> %pal
|  4> nprocs 20
|  5> end
|  6>
|  7> %scf
|  8> MaxIter 1500
|  9> end
| 10>
| 11> %maxcore 8000
| 12>
| 13> !CPCM
| 14> %cpcm smd true
| 15> SMDsolvent "ACETONITRILE"
| 16> end
| 17>
| 18> * xyz -1 2
| 19> 6        4.457775000     -0.662862000     -0.366731000
| 20> 8        4.042301000     -1.074161000     -1.477432000
| 21> 8        5.502853000     -0.945419000      0.259788000
| 22> 6        3.547124000      0.317219000      0.315815000
| 23> 6        2.243560000      0.886030000     -0.156325000
| 24> 6        1.004242000     -0.041565000      0.094488000
| 25> 6       -0.387246000      0.671717000      0.030861000
| 26> 6       -1.590991000     -0.320224000     -0.135043000
| 27> 6       -2.968291000      0.298669000      0.274497000
| 28> 6       -4.214083000     -0.485912000     -0.248532000
| 29> 9        3.773892000      0.613502000      1.609502000
| 30> 9        1.987818000      2.056514000      0.519664000
| 31> 9        2.279054000      1.185633000     -1.479259000
| 32> 9        1.014327000     -1.042942000     -0.811758000
| 33> 9        1.132863000     -0.583629000      1.331974000
| 34> 9       -0.568593000      1.379281000      1.168674000
| 35> 9       -0.403676000      1.528642000     -1.013377000
| 36> 9       -1.380293000     -1.412152000      0.632492000
| 37> 9       -1.655461000     -0.710429000     -1.426278000
| 38> 9       -3.058116000      1.560381000     -0.201021000
| 39> 9       -3.045720000      0.334303000      1.620221000
| 40> 9       -4.116733000     -1.787090000      0.042719000
| 41> 9       -5.307587000      0.004621000      0.344485000
| 42> 9       -4.349199000     -0.344521000     -1.568616000
| 43> *
| 44>
| 45>                          ****END OF INPUT****

CARTESIAN COORDINATES (ANGSTROEM)
---------------------------------
  C      4.457775   -0.662862   -0.366731
  O      4.042301   -1.074161   -1.477432
  O      5.502853   -0.945419    0.259788
  C      3.547124    0.317219    0.315815
  C      2.243560    0.886030   -0.156325
  C      1.004242   -0.041565    0.094488
  C     -0.387246    0.671717    0.030861
  C     -1.590991   -0.320224   -0.135043
  C     -2.968291    0.298669    0.274497
  C     -4.214083   -0.485912   -0.248532
  F      3.773892    0.613502    1.609502
  F      1.987818    2.056514    0.519664
  F      2.279054    1.185633   -1.479259
  F      1.014327   -1.042942   -0.811758
  F      1.132863   -0.583629    1.331974
  F     -0.568593    1.379281    1.168674
  F     -0.403676    1.528642   -1.013377
  F     -1.380293   -1.412152    0.632492
  F     -1.655461   -0.710429   -1.426278
  F     -3.058116    1.560381   -0.201021
  F     -3.045720    0.334303    1.620221
  F     -4.116733   -1.787090    0.042719
  F     -5.307587    0.004621    0.344485
  F     -4.349199   -0.344521   -1.568616

 Total Charge           Charge          ....   -1
 Multiplicity           Mult            ....    2
 Number of Electrons    NEL             ....  191
 Basis Dimension        Dim             ....  744

ORBITAL ENERGIES
----------------
                 SPIN UP ORBITALS
  NO   OCC          E(Eh)            E(eV)
   0   1.0000     -24.660370      -671.0428
   1   1.0000     -24.659311      -671.0140
   2   1.0000     -24.658740      -670.9984
   3   1.0000     -24.658471      -670.9911
   4   1.0000     -24.657678      -670.9695
   5   1.0000     -24.657446      -670.9632
   6   1.0000     -24.657377      -670.9614
   7   1.0000     -24.653549      -670.8572
   8   1.0000     -24.653341      -670.8515
   9   1.0000     -24.645834      -670.6472
  10   1.0000     -24.645724      -670.6442
  11   1.0000     -24.629474      -670.2021
  12   1.0000     -24.629229      -670.1954
  13   1.0000     -24.624562      -670.0684
  14   1.0000     -18.981226      -516.5054
  15   1.0000     -18.978871      -516.4413
  16   1.0000     -10.394770      -282.8561
  17   1.0000     -10.342222      -281.4262
  18   1.0000     -10.341994      -281.4200
  19   1.0000     -10.337328      -281.2930
  20   1.0000     -10.326064      -280.9865
  21   1.0000     -10.313011      -280.6313
  22   1.0000     -10.209252      -277.8079
  23   1.0000     -10.185915      -277.1728
  24   1.0000      -1.321352       -35.9558
  25   1.0000      -1.296270       -35.2733
  26   1.0000      -1.280668       -34.8487
  27   1.0000      -1.274636       -34.6846
  28   1.0000      -1.267542       -34.4916
  29   1.0000      -1.249572       -34.0026
  30   1.0000      -1.236345       -33.6427
  31   1.0000      -1.230491       -33.4834
  32   1.0000      -1.228787       -33.4370
  33   1.0000      -1.222117       -33.2555
  34   1.0000      -1.218908       -33.1682
  35   1.0000      -1.214600       -33.0509
  36   1.0000      -1.210112       -32.9288
  37   1.0000      -1.192016       -32.4364
  38   1.0000      -0.988571       -26.9004
  39   1.0000      -0.905338       -24.6355
  40   1.0000      -0.821085       -22.3429
  41   1.0000      -0.798815       -21.7369
  42   1.0000      -0.772495       -21.0207
  43   1.0000      -0.732469       -19.9315
  44   1.0000      -0.686406       -18.6781
  45   1.0000      -0.658502       -17.9188
  46   1.0000      -0.637049       -17.3350
  47   1.0000      -0.620740       -16.8912
  48   1.0000      -0.615950       -16.7608
  49   1.0000      -0.608956       -16.5705
  50   1.0000      -0.597296       -16.2533
  51   1.0000      -0.594045       -16.1648
  52   1.0000      -0.591767       -16.1028
  53   1.0000      -0.579625       -15.7724
  54   1.0000      -0.574962       -15.6455
  55   1.0000      -0.566246       -15.4083
  56   1.0000      -0.565549       -15.3894
  57   1.0000      -0.555398       -15.1131
  58   1.0000      -0.546048       -14.8587
  59   1.0000      -0.540290       -14.7020
  60   1.0000      -0.516176       -14.0459
  61   1.0000      -0.485310       -13.2059
  62   1.0000      -0.480708       -13.0807
  63   1.0000      -0.475663       -12.9434
  64   1.0000      -0.471184       -12.8216
  65   1.0000      -0.468957       -12.7610
  66   1.0000      -0.468415       -12.7462
  67   1.0000      -0.461004       -12.5445
  68   1.0000      -0.456795       -12.4300
  69   1.0000      -0.453860       -12.3502
  70   1.0000      -0.448928       -12.2160
  71   1.0000      -0.445664       -12.1271
  72   1.0000      -0.441873       -12.0240
  73   1.0000      -0.433461       -11.7951
  74   1.0000      -0.432086       -11.7576
  75   1.0000      -0.430426       -11.7125
  76   1.0000      -0.422761       -11.5039
  77   1.0000      -0.422293       -11.4912
  78   1.0000      -0.418755       -11.3949
  79   1.0000      -0.416738       -11.3400
  80   1.0000      -0.412938       -11.2366
  81   1.0000      -0.412124       -11.2145
  82   1.0000      -0.410652       -11.1744
  83   1.0000      -0.407719       -11.0946
  84   1.0000      -0.403655       -10.9840
  85   1.0000      -0.394308       -10.7297
  86   1.0000      -0.392077       -10.6690
  87   1.0000      -0.379518       -10.3272
  88   1.0000      -0.369718       -10.0605
  89   1.0000      -0.367376        -9.9968
  90   1.0000      -0.353382        -9.6160
  91   1.0000      -0.320651        -8.7254
  92   1.0000      -0.229996        -6.2585
  93   1.0000      -0.221750        -6.0341
  94   1.0000      -0.212196        -5.7742
  95   1.0000      -0.203922        -5.5490
  96   0.0000      -0.012038        -0.3276
  97   0.0000      -0.002770        -0.0754
  98   0.0000       0.027319         0.7434
  99   0.0000       0.043795         1.1917
 100   0.0000       0.072988         1.9861

                 SPIN DOWN ORBITALS
  NO   OCC          E(Eh)            E(eV)
   0   1.0000     -24.660370      -671.0428
   1   1.0000     -24.659310      -671.0139
   2   1.0000     -24.658741      -670.9984
   3   1.0000     -24.658466      -670.9910
   4   1.0000     -24.657674      -670.9694
   5   1.0000     -24.657445      -670.9632
   6   1.0000     -24.657380      -670.9614
   7   1.0000     -24.653539      -670.8569
   8   1.0000     -24.653346      -670.8517
   9   1.0000     -24.645801      -670.6464
  10   1.0000     -24.645708      -670.6438
  11   1.0000     -24.629045      -670.1904
  12   1.0000     -24.628786      -670.1833
  13   1.0000     -24.620606      -669.9608
  14   1.0000     -18.979002      -516.4449
  15   1.0000     -18.977719      -516.4100
  16   1.0000     -10.394761      -282.8558
  17   1.0000     -10.342196      -281.4255
  18   1.0000     -10.341932      -281.4183
  19   1.0000     -10.337148      -281.2881
  20   1.0000     -10.325262      -280.9647
  21   1.0000     -10.313787      -280.6524
  22   1.0000     -10.194888      -277.4170
  23   1.0000     -10.187053      -277.2038
  24   1.0000      -1.321347       -35.9557
  25   1.0000      -1.296205       -35.2715
  26   1.0000      -1.280561       -34.8458
  27   1.0000      -1.274599       -34.6836
  28   1.0000      -1.267363       -34.4867
  29   1.0000      -1.248436       -33.9717
  30   1.0000      -1.236341       -33.6425
  31   1.0000      -1.230485       -33.4832
  32   1.0000      -1.228761       -33.4363
  33   1.0000      -1.222050       -33.2537
  34   1.0000      -1.218781       -33.1647
  35   1.0000      -1.211810       -32.9750
  36   1.0000      -1.205805       -32.8116
  37   1.0000      -1.190614       -32.3982
  38   1.0000      -0.985966       -26.8295
  39   1.0000      -0.901852       -24.5406
  40   1.0000      -0.820613       -22.3300
  41   1.0000      -0.796398       -21.6711
  42   1.0000      -0.767012       -20.8715
  43   1.0000      -0.726088       -19.7579
  44   1.0000      -0.681222       -18.5370
  45   1.0000      -0.655969       -17.8498
  46   1.0000      -0.631545       -17.1852
  47   1.0000      -0.620570       -16.8866
  48   1.0000      -0.615308       -16.7434
  49   1.0000      -0.608909       -16.5693
  50   1.0000      -0.596897       -16.2424
  51   1.0000      -0.592982       -16.1358
  52   1.0000      -0.591007       -16.0821
  53   1.0000      -0.579189       -15.7605
  54   1.0000      -0.574402       -15.6303
  55   1.0000      -0.565302       -15.3826
  56   1.0000      -0.563135       -15.3237
  57   1.0000      -0.554543       -15.0899
  58   1.0000      -0.545079       -14.8323
  59   1.0000      -0.538080       -14.6419
  60   1.0000      -0.513332       -13.9685
  61   1.0000      -0.485208       -13.2032
  62   1.0000      -0.480626       -13.0785
  63   1.0000      -0.475614       -12.9421
  64   1.0000      -0.470596       -12.8056
  65   1.0000      -0.468921       -12.7600
  66   1.0000      -0.464003       -12.6262
  67   1.0000      -0.457213       -12.4414
  68   1.0000      -0.453866       -12.3503
  69   1.0000      -0.448799       -12.2124
  70   1.0000      -0.445618       -12.1259
  71   1.0000      -0.445306       -12.1174
  72   1.0000      -0.437672       -11.9097
  73   1.0000      -0.433110       -11.7855
  74   1.0000      -0.429362       -11.6835
  75   1.0000      -0.426376       -11.6023
  76   1.0000      -0.422279       -11.4908
  77   1.0000      -0.422218       -11.4891
  78   1.0000      -0.417811       -11.3692
  79   1.0000      -0.416611       -11.3366
  80   1.0000      -0.412159       -11.2154
  81   1.0000      -0.411876       -11.2077
  82   1.0000      -0.409488       -11.1427
  83   1.0000      -0.406889       -11.0720
  84   1.0000      -0.403019       -10.9667
  85   1.0000      -0.393419       -10.7055
  86   1.0000      -0.391086       -10.6420
  87   1.0000      -0.378281       -10.2936
  88   1.0000      -0.367631       -10.0037
  89   1.0000      -0.359566        -9.7843
  90   1.0000      -0.351793        -9.5728
  91   1.0000      -0.318519        -8.6673
  92   1.0000      -0.218894        -5.9564
  93   1.0000      -0.215255        -5.8574
  94   1.0000      -0.207709        -5.6520
  95   0.0000      -0.099839        -2.7168
  96   0.0000      -0.009464        -0.2575
  97   0.0000      -0.001507        -0.0410
  98   0.0000       0.029978         0.8157
  99   0.0000       0.047940         1.3045

MULLIKEN ATOMIC CHARGES AND SPIN POPULATIONS
--------------------------------------------
   0 C :    0.202773   -0.060763
   1 O :   -0.500864    0.081125
   2 O :   -0.509643    0.044841
   3 C :    0.062006    0.818903
   4 C :    0.370230   -0.014860
   5 C :    0.251973    0.036622
   6 C :    0.299504    0.007141
   7 C :    0.272125    0.002970
   8 C :    0.295511    0.000647
   9 C :    0.408115    0.000328
  10 F :   -0.177574    0.070693
  11 F :   -0.184867    0.006663
  12 F :   -0.165579    0.005928
  13 F :   -0.154675    0.000238
  14 F :   -0.166153   -0.000629
  15 F :   -0.153770    0.000142
  16 F :   -0.152535   -0.000181
  17 F :   -0.150774    0.000026
  18 F :   -0.150274    0.000076
  19 F :   -0.147833   -0.000010
  20 F :   -0.144592    0.000022
  21 F :   -0.135983   -0.000011
  22 F :   -0.133546    0.000090
  23 F :   -0.133575    0.000000
Sum of atomic charges         :   -1.0000000

LOEWDIN ATOMIC CHARGES AND SPIN POPULATIONS
-------------------------------------------
   0 C :   -0.713719    0.033872
   1 O :   -0.067817    0.071239
   2 O :   -0.073614    0.038593
   3 C :   -0.182232    0.628872
   4 C :   -0.475420    0.073009
   5 C :   -0.454285    0.027700
   6 C :   -0.459453    0.007744
   7 C :   -0.460220    0.002560
   8 C :   -0.466529    0.000861
   9 C :   -0.668054    0.000250
  10 F :    0.192887    0.096464
  11 F :    0.173243    0.008193
  12 F :    0.200417    0.008552
  13 F :    0.222530    0.000881
  14 F :    0.210148    0.000806
  15 F :    0.220698    0.000323
  16 F :    0.222143   -0.000108
  17 F :    0.224734   -0.000049
  18 F :    0.224938    0.000115
  19 F :    0.223738   -0.000017
  20 F :    0.225525    0.000032
  21 F :    0.226425   -0.000010
  22 F :    0.225771    0.000110
  23 F :    0.228147    0.000006

  Mayer bond orders larger than 0.100000
B(  0-C ,  1-O ) :   1.8081 B(  0-C ,  2-O ) :   1.8311 B(  0-C ,  3-C ) :   0.9644
B(  3-C ,  4-C ) :   0.9863 B(  3-C , 10-F ) :   1.0525 B(  4-C ,  5-C ) :   0.9382
B(  4-C , 11-F ) :   1.0490 B(  4-C , 12-F ) :   1.1045 B(  5-C ,  6-C ) :   0.9407
B(  5-C , 13-F ) :   1.1041 B(  5-C , 14-F ) :   1.0774 B(  6-C ,  7-C ) :   0.9428
B(  6-C , 15-F ) :   1.0890 B(  6-C , 16-F ) :   1.0951 B(  7-C ,  8-C ) :   0.9413
B(  7-C , 17-F ) :   1.0946 B(  7-C , 18-F ) :   1.1012 B(  8-C ,  9-C ) :   0.9711
B(  8-C , 19-F ) :   1.0999 B(  8-C , 20-F ) :   1.1114 B(  9-C , 21-F ) :   1.1606
B(  9-C , 22-F ) :   1.1613 B(  9-C , 23-F ) :   1.1711

Dispersion correction           -0.029258042
FINAL SINGLE POINT ENERGY     -1853.954066578898

DIPOLE MOMENT
-------------

Method             : SCF
Type of density    : Electron Density
Multiplicity       :   2
Irrep              :   0
Energy             : -1853.9248085367958083 Eh
Relativity type    :
Basis              : AO
                                X                 Y                 Z
Electronic contribution:    -18.565777383       3.160253356       1.762639429
Nuclear contribution   :     10.126630680      -1.671330010      -0.965969576
                        -----------------------------------------
Total Dipole Moment    :     -8.439146703       1.488923346       0.796669853
                        -----------------------------------------
Magnitude (a.u.)       :      8.606437861
Magnitude (Debye)      :     21.875826543

VIBRATIONAL FREQUENCIES
-----------------------

Scaling factor for frequencies =  1.000000000  (already applied!)

     0:       0.00 cm**-1
     1:       0.00 cm**-1
     2:       0.00 cm**-1
     3:       0.00 cm**-1
     4:       0.00 cm**-1
     5:       0.00 cm**-1
     6:      18.48 cm**-1
     7:      25.33 cm**-1
     8:      33.36 cm**-1
     9:      42.51 cm**-1
    10:      45.87 cm**-1
    11:      59.02 cm**-1
    12:      64.20 cm**-1
    13:      79.34 cm**-1
    14:     116.07 cm**-1
    15:     129.99 cm**-1
    16:     170.72 cm**-1
    17:     173.50 cm**-1
    18:     186.41 cm**-1
    19:     192.97 cm**-1
    20:     209.97 cm**-1
    21:     229.25 cm**-1
    22:     243.10 cm**-1
    23:     246.91 cm**-1
    24:     275.67 cm**-1
    25:     278.95 cm**-1
    26:     282.82 cm**-1
    27:     304.94 cm**-1
    28:     311.49 cm**-1
    29:     334.71 cm**-1
    30:     346.41 cm**-1
    31:     351.47 cm**-1
    32:     359.50 cm**-1
    33:     367.59 cm**-1
    34:     375.55 cm**-1
    35:     397.40 cm**-1
    36:     450.94 cm**-1
    37:     507.04 cm**-1
    38:     515.63 cm**-1
    39:     545.81 cm**-1
    40:     551.39 cm**-1
    41:     559.63 cm**-1
    42:     584.62 cm**-1
    43:     592.27 cm**-1
    44:     623.00 cm**-1
    45:     651.10 cm**-1
    46:     679.00 cm**-1
    47:     707.83 cm**-1
    48:     721.26 cm**-1
    49:     737.82 cm**-1
    50:     764.20 cm**-1
    51:     858.15 cm**-1
    52:     994.99 cm**-1
    53:    1031.64 cm**-1
    54:    1095.52 cm**-1
    55:    1104.08 cm**-1
    56:    1118.32 cm**-1
    57:    1127.16 cm**-1
    58:    1136.89 cm**-1
    59:    1143.98 cm**-1
    60:    1151.44 cm**-1
    61:    1156.44 cm**-1
    62:    1173.77 cm**-1
    63:    1174.99 cm**-1
    64:    1198.06 cm**-1
    65:    1207.32 cm**-1
    66:    1242.57 cm**-1
    67:    1266.53 cm**-1
    68:    1278.13 cm**-1
    69:    1320.50 cm**-1
    70:    1343.67 cm**-1
    71:    1642.88 cm**-1

IR SPECTRUM
-----------

 Mode   freq       eps      Int      T**2         TX        TY        TZ
       cm**-1   L/(mol*cm) km/mol    a.u.
----------------------------------------------------------------------------
  6:     18.48   0.000089    0.45  0.001507  (-0.009311 -0.029378  0.023598)
  7:     25.33   0.000789    3.99  0.009725  (-0.008254 -0.031484  0.093087)
  8:     33.36   0.001293    6.54  0.012099  (-0.067892 -0.086296 -0.006514)
  9:     42.51   0.000614    3.10  0.004509  ( 0.052631  0.039358 -0.013784)
 10:     45.87   0.000035    0.18  0.000239  (-0.005702 -0.004627  0.013604)
 11:     59.02   0.000173    0.88  0.000916  ( 0.027585  0.012438 -0.000775)
 12:     64.20   0.000167    0.84  0.000813  (-0.027897  0.004610  0.003618)
 13:     79.34   0.000065    0.33  0.000257  (-0.002464  0.013942 -0.007491)
 14:    116.07   0.000878    4.44  0.002362  (-0.044467  0.014833  0.012814)
 15:    129.99   0.000205    1.04  0.000493  ( 0.017862 -0.003381  0.012741)
 16:    170.72   0.000873    4.41  0.001596  (-0.024243  0.013945 -0.028520)
 17:    173.50   0.000623    3.15  0.001120  (-0.003313  0.013903 -0.030256)
 18:    186.41   0.001982   10.02  0.003319  (-0.005172 -0.009654  0.056558)
 19:    192.97   0.000044    0.22  0.000072  (-0.001556  0.008197  0.001379)
 20:    209.97   0.000381    1.92  0.000566  (-0.006042  0.022696 -0.003808)
 21:    229.25   0.000002    0.01  0.000002  ( 0.000198 -0.001304 -0.000591)
 22:    243.10   0.000027    0.14  0.000035  ( 0.005745 -0.001039 -0.001031)
 23:    246.91   0.000076    0.39  0.000096  (-0.008754 -0.004041 -0.001832)
 24:    275.67   0.003228   16.32  0.003655  (-0.058125 -0.001826  0.016517)
 25:    278.95   0.000208    1.05  0.000233  (-0.010435  0.010530  0.003582)
 26:    282.82   0.000441    2.23  0.000486  (-0.012044  0.002654  0.018281)
 27:    304.94   0.000144    0.73  0.000148  (-0.006153 -0.007255  0.007574)
 28:    311.49   0.000504    2.55  0.000505  (-0.018307  0.008085  0.010216)
 29:    334.71   0.000074    0.37  0.000069  (-0.005233 -0.000345  0.006431)
 30:    346.41   0.000259    1.31  0.000233  ( 0.001866 -0.000168  0.015145)
 31:    351.47   0.000024    0.12  0.000022  (-0.000467 -0.000684 -0.004585)
 32:    359.50   0.000090    0.45  0.000078  (-0.008791  0.000469  0.000723)
 33:    367.59   0.000341    1.72  0.000290  (-0.016341  0.001966  0.004339)
 34:    375.55   0.000492    2.49  0.000409  ( 0.018408 -0.003649 -0.007520)
 35:    397.40   0.000299    1.51  0.000235  ( 0.007629  0.011293 -0.007022)
 36:    450.94   0.000142    0.72  0.000098  (-0.001232  0.004889 -0.008527)
 37:    507.04   0.001831    9.25  0.001127  (-0.032763 -0.003395  0.006475)
 38:    515.63   0.005980   30.22  0.003619  (-0.055011  0.022284  0.009831)
 39:    545.81   0.004134   20.89  0.002364  ( 0.005381  0.048035 -0.005228)
 40:    551.39   0.007466   37.73  0.004225  ( 0.064403  0.003653  0.008009)
 41:    559.63   0.006575   33.23  0.003666  (-0.051370 -0.023292 -0.022023)
 42:    584.62   0.000177    0.89  0.000094  (-0.000561 -0.004159  0.008767)
 43:    592.27   0.003404   17.20  0.001793  ( 0.042183 -0.002349  0.002918)
 44:    623.00   0.003661   18.50  0.001834  ( 0.038339  0.016812  0.009009)
 45:    651.10   0.040642  205.39  0.019479  (-0.139549  0.002302 -0.000005)
 46:    679.00   0.014203   71.78  0.006528  (-0.079287  0.013981  0.006767)
 47:    707.83   0.001120    5.66  0.000494  (-0.007034  0.019430  0.008179)
 48:    721.26   0.008813   44.54  0.003813  (-0.044591 -0.042573  0.003484)
 49:    737.82   0.006245   31.56  0.002641  (-0.038812  0.016180  0.029552)
 50:    764.20   0.007211   36.44  0.002945  (-0.012351  0.045084  0.027558)
 51:    858.15   0.004657   23.54  0.001694  (-0.020871  0.025993  0.024132)
 52:    994.99   0.010817   54.66  0.003393  ( 0.056596 -0.008866  0.010533)
 53:   1031.64   0.034438  174.04  0.010417  (-0.022960 -0.097314 -0.020497)
 54:   1095.52   0.007020   35.48  0.002000  ( 0.035135 -0.024765 -0.012325)
 55:   1104.08   0.051197  258.73  0.014471  (-0.002682  0.016540 -0.119122)
 56:   1118.32   0.064560  326.26  0.018015  ( 0.004410  0.132650  0.019991)
 57:   1127.16   0.042895  216.77  0.011876  (-0.002964  0.088482  0.063544)
 58:   1136.89   0.024453  123.58  0.006712  ( 0.017172 -0.043214  0.067453)
 59:   1143.98   0.085785  433.52  0.023401  ( 0.009415 -0.021517  0.151160)
 60:   1151.44   0.092025  465.06  0.024941  ( 0.054222 -0.142627 -0.040721)
 61:   1156.44   0.097016  490.28  0.026180  (-0.008495 -0.031164  0.158544)
 62:   1173.77   0.016816   84.98  0.004471  (-0.041672 -0.024897  0.045981)
 63:   1174.99   0.069721  352.34  0.018517  (-0.013674  0.062528 -0.120085)
 64:   1198.06   0.032806  165.79  0.008545  (-0.005287  0.025349  0.088739)
 65:   1207.32   0.003995   20.19  0.001033  ( 0.006597 -0.005112  0.031032)
 66:   1242.57   0.008944   45.20  0.002246  ( 0.038792 -0.009057 -0.025679)
 67:   1266.53   0.033545  169.52  0.008265  (-0.052687  0.068544  0.028126)
 68:   1278.13   0.022609  114.26  0.005520  (-0.024222  0.062722  0.031614)
 69:   1320.50   0.048411  244.65  0.011441  (-0.104647  0.022028  0.002071)
 70:   1343.67   0.002321   11.73  0.000539  (-0.004680  0.021052  0.008594)
 71:   1642.88   0.139491  704.93  0.026496  ( 0.111779  0.003608  0.118274)

--------------------------
THERMOCHEMISTRY AT 298.15K
--------------------------

Temperature         ...   298.15 K
Pressure            ...     1.00 atm
Total Mass          ...   394.06 AMU
Quasi RRHO          ...     True
Cut-Off Frequency   ...     1.00 cm^-1

Throughout the following assumptions are being made:
  (1) The electronic state is orbitally nondegenerate
      but the spin degeneracy is treated
  (2) There are no thermally accessible electronically excited states
  (3) Hindered rotations indicated by low frequency modes are not
      treated as such but are treated as vibrations and this may
      cause some error
  (4) All equations used are the standard statistical mechanics
      equations for an ideal gas
  (5) All vibrations are strictly harmonic

freq.      18.48  E(vib)   ...       0.57
freq.      25.33  E(vib)   ...       0.56
freq.      33.36  E(vib)   ...       0.55
freq.      42.51  E(vib)   ...       0.53
freq.      45.87  E(vib)   ...       0.53
freq.      59.02  E(vib)   ...       0.51
freq.      64.20  E(vib)   ...       0.51
freq.      79.34  E(vib)   ...       0.49
freq.     116.07  E(vib)   ...       0.44
freq.     129.99  E(vib)   ...       0.43
freq.     170.72  E(vib)   ...       0.38
freq.     173.50  E(vib)   ...       0.38
freq.     186.41  E(vib)   ...       0.37
freq.     192.97  E(vib)   ...       0.36
freq.     209.97  E(vib)   ...       0.34
freq.     229.25  E(vib)   ...       0.32
freq.     243.10  E(vib)   ...       0.31
freq.     246.91  E(vib)   ...       0.31
freq.     275.67  E(vib)   ...       0.28
freq.     278.95  E(vib)   ...       0.28
freq.     282.82  E(vib)   ...       0.28
freq.     304.94  E(vib)   ...       0.26
freq.     311.49  E(vib)   ...       0.25
freq.     334.71  E(vib)   ...       0.24
freq.     346.41  E(vib)   ...       0.23
freq.     351.47  E(vib)   ...       0.23
freq.     359.50  E(vib)   ...       0.22
freq.     367.59  E(vib)   ...       0.21
freq.     375.55  E(vib)   ...       0.21
freq.     397.40  E(vib)   ...       0.20
freq.     450.94  E(vib)   ...       0.17
freq.     507.04  E(vib)   ...       0.14
freq.     515.63  E(vib)   ...       0.13
freq.     545.81  E(vib)   ...       0.12
freq.     551.39  E(vib)   ...       0.12
freq.     559.63  E(vib)   ...       0.12
freq.     584.62  E(vib)   ...       0.11
freq.     592.27  E(vib)   ...       0.10
freq.     623.00  E(vib)   ...       0.09
freq.     651.10  E(vib)   ...       0.08
freq.     679.00  E(vib)   ...       0.08
freq.     707.83  E(vib)   ...       0.07
freq.     721.26  E(vib)   ...       0.07
freq.     737.82  E(vib)   ...       0.06
freq.     764.20  E(vib)   ...       0.06
freq.     858.15  E(vib)   ...       0.04
freq.     994.99  E(vib)   ...       0.02
freq.    1031.64  E(vib)   ...       0.02
freq.    1095.52  E(vib)   ...       0.02
freq.    1104.08  E(vib)   ...       0.02
freq.    1118.32  E(vib)   ...       0.01
freq.    1127.16  E(vib)   ...       0.01
freq.    1136.89  E(vib)   ...       0.01
freq.    1143.98  E(vib)   ...       0.01
freq.    1151.44  E(vib)   ...       0.01
freq.    1156.44  E(vib)   ...       0.01
freq.    1173.77  E(vib)   ...       0.01
freq.    1174.99  E(vib)   ...       0.01
freq.    1198.06  E(vib)   ...       0.01
freq.    1207.32  E(vib)   ...       0.01
freq.    1242.57  E(vib)   ...       0.01
freq.    1266.53  E(vib)   ...       0.01
freq.    1278.13  E(vib)   ...       0.01
freq.    1320.50  E(vib)   ...       0.01
freq.    1343.67  E(vib)   ...       0.01
freq.    1642.88  E(vib)   ...       0.00

------------
INNER ENERGY
------------

The inner energy is: U= E(el) + E(ZPE) + E(vib) + E(rot) + E(trans)
    E(el)   - is the total energy from the electronic structure calculation
              = E(kin-el) + E(nuc-el) + E(el-el) + E(nuc-nuc)
    E(ZPE)  - the the zero temperature vibrational energy from the frequency calculation
    E(vib)  - the the finite temperature correction to E(ZPE) due to population
              of excited vibrational states
    E(rot)  - is the rotational thermal energy
    E(trans)- is the translational thermal energy

Summary of contributions to the inner energy U:
Electronic energy                ...  -1853.95406658 Eh
Zero point energy                ...      0.09160976 Eh      57.49 kcal/mol
Thermal vibrational correction   ...      0.01999334 Eh      12.55 kcal/mol
Thermal rotational correction    ...      0.00141627 Eh       0.89 kcal/mol
Thermal translational correction ...      0.00141627 Eh       0.89 kcal/mol
-----------------------------------------------------------------------
Total thermal energy                  -1853.83963094 Eh

Summary of corrections to the electronic energy:
(perhaps to be used in another calculation)
Total thermal correction                  0.02282588 Eh      14.32 kcal/mol
Non-thermal (ZPE) correction              0.09160976 Eh      57.49 kcal/mol
-----------------------------------------------------------------------
Total correction                          0.11443564 Eh      71.81 kcal/mol

--------
ENTHALPY
--------

The enthalpy is H = U + kB*T
                kB is Boltzmann's constant
Total thermal energy              ...  -1853.83963094 Eh
Thermal Enthalpy correction       ...      0.00094421 Eh       0.59 kcal/mol
-----------------------------------------------------------------------
Total Enthalpy                    ...  -1853.83868673 Eh

Note: Only C1 symmetry has been detected, increase convergence thresholds
      if your molecule has a higher symmetry. Symmetry factor of 1.0 is
      used for the rotational entropy correction.

Note: Rotational entropy computed according to Herzberg
Infrared and Raman Spectra, Chapter V,1, Van Nostrand Reinhold, 1945
Point Group:  C1, Symmetry Number:   1
Rotational constants in cm-1:     0.020847     0.004164     0.004047

Vibrational entropy computed according to the QRRHO of S. Grimme
Chem.Eur.J. 2012 18 9955 using a reference frequency of 100.0 cm-1

-------
ENTROPY
-------

The entropy contributions are T*S = T*(S(el)+S(vib)+S(rot)+S(trans))
     S(el)   - electronic entropy
     S(vib)  - vibrational entropy
     S(rot)  - rotational entropy
     S(trans)- translational entropy
The entropies will be listed as multiplied by the temperature to get
units of energy

Electronic entropy                ...      0.00065446 Eh      0.41 kcal/mol
Vibrational entropy               ...      0.03619818 Eh     22.71 kcal/mol
Rotational entropy                ...      0.01652674 Eh     10.37 kcal/mol
Translational entropy             ...      0.02081341 Eh     13.06 kcal/mol
-----------------------------------------------------------------------

                             ****ORCA TERMINATED NORMALLY****
TOTAL RUN TIME: 0 days 0 hours 24 minutes 4 seconds 687 msec
