                         Program Version 6.0.1  -  RELEASE   -
|  1> !B3LYP def2-TZVP opt d3 TightSCF SlowConv defgrid2
|  2>
|  3> %pal
|  4> nprocs 20
|  5> end
|  6>
|  7> %scf
|  8> MaxIter 1500
|  9> end
| 10>
| 11> %maxcore 8000
| 12>
| 13> !CPCM
| 14> %cpcm smd true
| 15> SMDsolvent "ACETONITRILE"
| 16> end
| 17>
| 18> * xyz 0 2
| 19> 6        4.790427000     -0.033865800     -0.529943200
| 20> 8        5.449345000     -1.206924000     -0.894594600
| 21> 8        4.978223000      1.323071000     -0.737377200
| 22> 6        3.506687600     -0.338741600      0.376153800
| 23> 6        2.222300000      0.400524800     -0.110681600
| 24> 6        0.900506800     -0.386389800      0.175703000
| 25> 6       -0.395261200      0.487294000      0.065549000
| 26> 6       -1.705693600     -0.364773800     -0.068373600
| 27> 6       -3.005136200      0.445344800      0.258164000
| 28> 6       -4.319880200     -0.214526000     -0.270540800
| 29> 9        3.211587400     -1.692050400      0.412735200
| 30> 9        3.741061800      0.055285800      1.689948800
| 31> 9        2.125696800      1.616867800      0.483236600
| 32> 9        2.314152400      0.589704000     -1.455769200
| 33> 9        0.794028800     -1.413561400     -0.700839000
| 34> 9        0.958350600     -0.884509000      1.435093400
| 35> 9       -0.498373400      1.260265600      1.173340200
| 36> 9       -0.299075000      1.289512600     -1.020910800
| 37> 9       -1.792381400     -0.831391600     -1.336863600
| 38> 9       -2.918792200      1.679227200     -0.295171200
| 39> 9       -3.119771000      0.573779800      1.598579800
| 40> 9       -4.383115600     -1.504377600      0.089127600
| 41> 9       -5.365669800      0.430528600      0.260394200
| 42> 9       -4.396020400     -0.128550600     -1.602941800
| 43> 1        5.903122371     -2.014774547     -1.145719253
| 44> *
| 45>
| 46>                          ****END OF INPUT****
 Total Charge           Charge          ....    0
 Multiplicity           Mult            ....    2
 Number of Electrons    NEL             ....  191
Dispersion correction           -0.042219964
FINAL SINGLE POINT ENERGY     -1853.618481016988
Dispersion correction             ... done (  0.0 sec)
Dispersion correction           -0.042457068
FINAL SINGLE POINT ENERGY     -1853.671174835749
Dispersion correction             ... done (  0.1 sec)
Dispersion correction           -0.042626883
FINAL SINGLE POINT ENERGY     -1853.682791817144
Dispersion correction             ... done (  0.1 sec)
FINAL SINGLE POINT ENERGY     -1853.689629218249
FINAL SINGLE POINT ENERGY     -1853.690258158362
FINAL SINGLE POINT ENERGY     -1853.693559776080
FINAL SINGLE POINT ENERGY     -1853.695220866422
FINAL SINGLE POINT ENERGY     -1853.699694694470
FINAL SINGLE POINT ENERGY     -1853.705947538423
FINAL SINGLE POINT ENERGY     -1853.713452743836
FINAL SINGLE POINT ENERGY     -1853.736693894724
FINAL SINGLE POINT ENERGY     -1853.736703147148
FINAL SINGLE POINT ENERGY     -1853.736707938306
FINAL SINGLE POINT ENERGY     -1853.736712794775
FINAL SINGLE POINT ENERGY     -1853.736716126070
FINAL SINGLE POINT ENERGY     -1853.736719189968
FINAL SINGLE POINT ENERGY     -1853.736722439822
Dispersion correction             ... done (  0.0 sec)
Dispersion correction           -0.042895932
FINAL SINGLE POINT ENERGY     -1853.736724641530
Dispersion correction             ... done (  0.0 sec)
Dispersion correction           -0.042899585
FINAL SINGLE POINT ENERGY     -1853.736727351898
Dispersion correction             ... done (  0.0 sec)
                    ***********************HURRAY********************

CARTESIAN COORDINATES (ANGSTROEM)
---------------------------------
  C      4.663148   -0.317370    0.104666
  O      5.068100   -1.183459   -0.810531
  O      5.285842    0.593055    0.569619
  C      3.198726   -0.601190    0.540223
  C      2.186735    0.233165   -0.308005
  C      0.691273   -0.199522   -0.137850
  C     -0.358839    0.868118   -0.602710
  C     -1.751030    0.318793   -0.702224
  C     -2.845989    0.532479    0.291340
  C     -4.008098   -0.501397    0.183079
  F      2.898404   -1.913138    0.410924
  F      3.070129   -0.257047    1.836571
  F      2.326692    1.530170    0.034505
  F      2.520453    0.098526   -1.610135
  F      0.489878   -1.318830   -0.865650
  F      0.445720   -0.481055    1.157593
  F     -0.347938    1.896262    0.274668
  F      0.028327    1.323529   -1.821966
  F     -2.043038   -0.324647   -1.816303
  F     -3.404966    1.771766    0.160014
  F     -2.346922    0.456264    1.550173
  F     -3.529861   -1.745443    0.275460
  F     -4.869464   -0.297786    1.181194
  F     -4.658019   -0.369908   -0.974532
  H      5.987058   -0.974366   -1.071823

 Multiplicity           Mult            ....    2
 Number of Electrons    NEL             ....  191
 Basis Dimension        Dim             ....  750

ORBITAL ENERGIES
----------------
                 SPIN UP ORBITALS
  NO   OCC          E(Eh)            E(eV)
   0   1.0000     -24.761492      -673.7944
   1   1.0000     -24.744246      -673.3252
   2   1.0000     -24.743941      -673.3169
   3   1.0000     -24.743275      -673.2987
   4   1.0000     -24.743248      -673.2980
   5   1.0000     -24.742493      -673.2775
   6   1.0000     -24.742346      -673.2735
   7   1.0000     -24.741864      -673.2603
   8   1.0000     -24.740430      -673.2213
   9   1.0000     -24.738435      -673.1670
  10   1.0000     -24.737573      -673.1436
  11   1.0000     -24.734691      -673.0651
  12   1.0000     -24.733028      -673.0199
  13   1.0000     -24.732318      -673.0006
  14   1.0000     -19.207470      -522.6618
  15   1.0000     -19.154452      -521.2191
  16   1.0000     -10.459658      -284.6218
  17   1.0000     -10.407958      -283.2149
  18   1.0000     -10.405277      -283.1420
  19   1.0000     -10.405127      -283.1379
  20   1.0000     -10.404811      -283.1293
  21   1.0000     -10.396022      -282.8901
  22   1.0000     -10.346435      -281.5408
  23   1.0000     -10.331414      -281.1321
  24   1.0000      -1.351939       -36.7881
  25   1.0000      -1.330580       -36.2069
  26   1.0000      -1.315056       -35.7845
  27   1.0000      -1.306779       -35.5593
  28   1.0000      -1.302450       -35.4415
  29   1.0000      -1.300964       -35.4010
  30   1.0000      -1.298555       -35.3355
  31   1.0000      -1.262665       -34.3589
  32   1.0000      -1.262506       -34.3545
  33   1.0000      -1.260049       -34.2877
  34   1.0000      -1.252932       -34.0940
  35   1.0000      -1.247850       -33.9557
  36   1.0000      -1.243865       -33.8473
  37   1.0000      -1.242980       -33.8232
  38   1.0000      -1.146917       -31.2092
  39   1.0000      -1.062774       -28.9195
  40   1.0000      -0.861924       -23.4541
  41   1.0000      -0.838089       -22.8056
  42   1.0000      -0.811883       -22.0925
  43   1.0000      -0.779281       -21.2053
  44   1.0000      -0.735529       -20.0148
  45   1.0000      -0.703887       -19.1537
  46   1.0000      -0.677487       -18.4354
  47   1.0000      -0.668680       -18.1957
  48   1.0000      -0.645364       -17.5612
  49   1.0000      -0.643917       -17.5219
  50   1.0000      -0.639522       -17.4023
  51   1.0000      -0.633670       -17.2430
  52   1.0000      -0.632793       -17.2192
  53   1.0000      -0.625369       -17.0172
  54   1.0000      -0.612935       -16.6788
  55   1.0000      -0.610483       -16.6121
  56   1.0000      -0.604491       -16.4490
  57   1.0000      -0.599192       -16.3049
  58   1.0000      -0.593174       -16.1411
  59   1.0000      -0.589535       -16.0421
  60   1.0000      -0.580868       -15.8062
  61   1.0000      -0.574150       -15.6234
  62   1.0000      -0.539754       -14.6875
  63   1.0000      -0.520988       -14.1768
  64   1.0000      -0.514564       -14.0020
  65   1.0000      -0.508850       -13.8465
  66   1.0000      -0.506854       -13.7922
  67   1.0000      -0.502781       -13.6814
  68   1.0000      -0.500405       -13.6167
  69   1.0000      -0.498953       -13.5772
  70   1.0000      -0.495739       -13.4898
  71   1.0000      -0.488854       -13.3024
  72   1.0000      -0.487689       -13.2707
  73   1.0000      -0.482486       -13.1291
  74   1.0000      -0.478373       -13.0172
  75   1.0000      -0.474247       -12.9049
  76   1.0000      -0.469821       -12.7845
  77   1.0000      -0.468083       -12.7372
  78   1.0000      -0.465309       -12.6617
  79   1.0000      -0.462067       -12.5735
  80   1.0000      -0.461258       -12.5515
  81   1.0000      -0.459663       -12.5081
  82   1.0000      -0.452118       -12.3027
  83   1.0000      -0.448156       -12.1949
  84   1.0000      -0.446990       -12.1632
  85   1.0000      -0.444261       -12.0890
  86   1.0000      -0.442619       -12.0443
  87   1.0000      -0.441540       -12.0149
  88   1.0000      -0.439304       -11.9541
  89   1.0000      -0.431136       -11.7318
  90   1.0000      -0.410282       -11.1643
  91   1.0000      -0.388501       -10.5717
  92   1.0000      -0.363353        -9.8873
  93   1.0000      -0.360074        -9.7981
  94   1.0000      -0.318712        -8.6726
  95   1.0000      -0.276802        -7.5322
  96   0.0000      -0.051116        -1.3909
  97   0.0000      -0.004114        -0.1119
  98   0.0000       0.024335         0.6622
  99   0.0000       0.034332         0.9342
 100   0.0000       0.039424         1.0728

                 SPIN DOWN ORBITALS
  NO   OCC          E(Eh)            E(eV)
   0   1.0000     -24.756869      -673.6686
   1   1.0000     -24.744196      -673.3238
   2   1.0000     -24.743880      -673.3152
   3   1.0000     -24.743245      -673.2979
   4   1.0000     -24.743227      -673.2974
   5   1.0000     -24.742495      -673.2775
   6   1.0000     -24.742306      -673.2724
   7   1.0000     -24.741855      -673.2601
   8   1.0000     -24.740097      -673.2123
   9   1.0000     -24.737711      -673.1473
  10   1.0000     -24.736908      -673.1255
  11   1.0000     -24.734692      -673.0652
  12   1.0000     -24.733025      -673.0198
  13   1.0000     -24.730686      -672.9562
  14   1.0000     -19.207467      -522.6618
  15   1.0000     -19.154439      -521.2188
  16   1.0000     -10.459568      -284.6193
  17   1.0000     -10.408826      -283.2386
  18   1.0000     -10.405848      -283.1575
  19   1.0000     -10.404770      -283.1282
  20   1.0000     -10.404574      -283.1228
  21   1.0000     -10.395979      -282.8890
  22   1.0000     -10.346424      -281.5405
  23   1.0000     -10.316990      -280.7396
  24   1.0000      -1.351687       -36.7813
  25   1.0000      -1.330091       -36.1936
  26   1.0000      -1.313457       -35.7410
  27   1.0000      -1.305025       -35.5115
  28   1.0000      -1.301612       -35.4187
  29   1.0000      -1.299779       -35.3688
  30   1.0000      -1.290965       -35.1289
  31   1.0000      -1.262386       -34.3513
  32   1.0000      -1.262250       -34.3476
  33   1.0000      -1.259918       -34.2841
  34   1.0000      -1.252508       -34.0825
  35   1.0000      -1.247018       -33.9331
  36   1.0000      -1.243850       -33.8469
  37   1.0000      -1.240319       -33.7508
  38   1.0000      -1.146902       -31.2088
  39   1.0000      -1.062754       -28.9190
  40   1.0000      -0.849616       -23.1192
  41   1.0000      -0.834065       -22.6961
  42   1.0000      -0.810550       -22.0562
  43   1.0000      -0.774293       -21.0696
  44   1.0000      -0.731474       -19.9044
  45   1.0000      -0.702130       -19.1059
  46   1.0000      -0.673687       -18.3320
  47   1.0000      -0.668404       -18.1882
  48   1.0000      -0.643267       -17.5042
  49   1.0000      -0.642011       -17.4700
  50   1.0000      -0.636792       -17.3280
  51   1.0000      -0.633056       -17.2263
  52   1.0000      -0.632179       -17.2025
  53   1.0000      -0.624749       -17.0003
  54   1.0000      -0.611792       -16.6477
  55   1.0000      -0.608345       -16.5539
  56   1.0000      -0.602590       -16.3973
  57   1.0000      -0.596923       -16.2431
  58   1.0000      -0.589492       -16.0409
  59   1.0000      -0.588057       -16.0018
  60   1.0000      -0.579073       -15.7574
  61   1.0000      -0.573920       -15.6172
  62   1.0000      -0.520969       -14.1763
  63   1.0000      -0.513327       -13.9683
  64   1.0000      -0.512511       -13.9461
  65   1.0000      -0.508462       -13.8360
  66   1.0000      -0.505299       -13.7499
  67   1.0000      -0.501602       -13.6493
  68   1.0000      -0.499552       -13.5935
  69   1.0000      -0.497580       -13.5398
  70   1.0000      -0.495166       -13.4742
  71   1.0000      -0.487577       -13.2676
  72   1.0000      -0.486078       -13.2269
  73   1.0000      -0.481820       -13.1110
  74   1.0000      -0.477344       -12.9892
  75   1.0000      -0.472916       -12.8687
  76   1.0000      -0.468094       -12.7375
  77   1.0000      -0.467408       -12.7188
  78   1.0000      -0.463559       -12.6141
  79   1.0000      -0.460823       -12.5396
  80   1.0000      -0.459962       -12.5162
  81   1.0000      -0.458496       -12.4763
  82   1.0000      -0.451611       -12.2890
  83   1.0000      -0.446588       -12.1523
  84   1.0000      -0.446152       -12.1404
  85   1.0000      -0.443672       -12.0729
  86   1.0000      -0.442277       -12.0350
  87   1.0000      -0.440517       -11.9871
  88   1.0000      -0.437657       -11.9092
  89   1.0000      -0.430363       -11.7108
  90   1.0000      -0.408571       -11.1178
  91   1.0000      -0.386171       -10.5083
  92   1.0000      -0.361934        -9.8487
  93   1.0000      -0.359146        -9.7729
  94   1.0000      -0.318286        -8.6610
  95   0.0000      -0.133251        -3.6259
  96   0.0000      -0.049956        -1.3594
  97   0.0000      -0.001524        -0.0415
  98   0.0000       0.027248         0.7414
  99   0.0000       0.036231         0.9859

MULLIKEN ATOMIC CHARGES AND SPIN POPULATIONS
--------------------------------------------
   0 C :    0.227573    0.000417
   1 O :   -0.347497    0.000061
   2 O :   -0.284971    0.000465
   3 C :    0.411778    0.001773
   4 C :    0.305990    0.004462
   5 C :    0.316821    0.027828
   6 C :    0.390942   -0.017007
   7 C :    0.121816    0.825627
   8 C :    0.345844    0.003661
   9 C :    0.478173   -0.001965
  10 F :   -0.177442    0.000020
  11 F :   -0.172720    0.000089
  12 F :   -0.171452   -0.000047
  13 F :   -0.173668    0.000218
  14 F :   -0.174043    0.000769
  15 F :   -0.173144    0.000635
  16 F :   -0.171013    0.006079
  17 F :   -0.174003    0.013744
  18 F :   -0.139192    0.089463
  19 F :   -0.177964    0.030015
  20 F :   -0.173415    0.011598
  21 F :   -0.158813    0.000565
  22 F :   -0.153926    0.000342
  23 F :   -0.156172    0.001125
  24 H :    0.380500    0.000060
Sum of atomic charges         :   -0.0000000

LOEWDIN ATOMIC CHARGES AND SPIN POPULATIONS
-------------------------------------------
   0 C :   -0.489125    0.000441
   1 O :    0.154900    0.000069
   2 O :    0.135931    0.000399
   3 C :   -0.449402    0.001738
   4 C :   -0.452484    0.004893
   5 C :   -0.450344    0.022460
   6 C :   -0.474576    0.061645
   7 C :   -0.159123    0.653257
   8 C :   -0.474487    0.062474
   9 C :   -0.658274    0.002278
  10 F :    0.208619   -0.000020
  11 F :    0.215192    0.000103
  12 F :    0.223473   -0.000048
  13 F :    0.219737    0.000268
  14 F :    0.220999    0.001149
  15 F :    0.224221    0.000920
  16 F :    0.219635    0.006638
  17 F :    0.210060    0.014389
  18 F :    0.269692    0.114537
  19 F :    0.191056    0.034435
  20 F :    0.209230    0.014847
  21 F :    0.223163    0.001130
  22 F :    0.225149    0.000498
  23 F :    0.224209    0.001472
  24 H :    0.232550    0.000028

  Mayer bond orders larger than 0.100000
B(  0-C ,  1-O ) :   1.3076 B(  0-C ,  2-O ) :   2.0842 B(  0-C ,  3-C ) :   0.9003
B(  1-O , 24-H ) :   0.8218 B(  3-C ,  4-C ) :   0.9394 B(  3-C , 10-F ) :   1.0888
B(  3-C , 11-F ) :   1.1052 B(  4-C ,  5-C ) :   0.9242 B(  4-C , 12-F ) :   1.0813
B(  4-C , 13-F ) :   1.0756 B(  5-C ,  6-C ) :   0.9235 B(  5-C , 14-F ) :   1.0745
B(  5-C , 15-F ) :   1.0815 B(  6-C ,  7-C ) :   1.0271 B(  6-C , 16-F ) :   1.0914
B(  6-C , 17-F ) :   1.0752 B(  7-C ,  8-C ) :   1.0150 B(  7-C , 18-F ) :   1.1342
B(  8-C ,  9-C ) :   0.9652 B(  8-C , 19-F ) :   1.0772 B(  8-C , 20-F ) :   1.0720
B(  9-C , 21-F ) :   1.1456 B(  9-C , 22-F ) :   1.1499 B(  9-C , 23-F ) :   1.1456

Dispersion correction           -0.042900321
FINAL SINGLE POINT ENERGY     -1853.736727861300

DIPOLE MOMENT
-------------

Method             : SCF
Type of density    : Electron Density
Multiplicity       :   2
Irrep              :   0
Energy             : -1853.6938275403151692 Eh
Relativity type    :
Basis              : AO
                                X                 Y                 Z
Electronic contribution:    -14.197297200       0.597413752       0.388023589
Nuclear contribution   :     14.925318091      -1.246925461      -1.317040235
                        -----------------------------------------
Total Dipole Moment    :      0.728020891      -0.649511709      -0.929016645
                        -----------------------------------------
Magnitude (a.u.)       :      1.347201472
Magnitude (Debye)      :      3.424314006

Rotational constants in cm-1:             0.020089             0.004066             0.004020
Rotational constants in MHz :           602.250168           121.908128           120.524264

                             ****ORCA TERMINATED NORMALLY****
TOTAL RUN TIME: 0 days 1 hours 26 minutes 8 seconds 393 msec
