                         Program Version 6.0.1  -  RELEASE   -
|  1> !TPSSh def2-TZVP opt d3 TightSCF SlowConv defgrid2
|  2>
|  3> %pal
|  4> nprocs 20
|  5> end
|  6>
|  7> %scf
|  8> MaxIter 1500
|  9> end
| 10>
| 11> %maxcore 8000
| 12>
| 13> !CPCM
| 14> %cpcm smd true
| 15> SMDsolvent "ACETONITRILE"
| 16> end
| 17>
| 18> * xyz 0 2
| 19> 6        4.790427000     -0.033865800     -0.529943200
| 20> 8        5.449345000     -1.206924000     -0.894594600
| 21> 8        4.978223000      1.323071000     -0.737377200
| 22> 6        3.506687600     -0.338741600      0.376153800
| 23> 6        2.222300000      0.400524800     -0.110681600
| 24> 6        0.900506800     -0.386389800      0.175703000
| 25> 6       -0.395261200      0.487294000      0.065549000
| 26> 6       -1.705693600     -0.364773800     -0.068373600
| 27> 6       -3.005136200      0.445344800      0.258164000
| 28> 6       -4.319880200     -0.214526000     -0.270540800
| 29> 9        3.211587400     -1.692050400      0.412735200
| 30> 9        3.741061800      0.055285800      1.689948800
| 31> 9        2.125696800      1.616867800      0.483236600
| 32> 9        2.314152400      0.589704000     -1.455769200
| 33> 9        0.794028800     -1.413561400     -0.700839000
| 34> 9        0.958350600     -0.884509000      1.435093400
| 35> 9       -0.498373400      1.260265600      1.173340200
| 36> 9       -0.299075000      1.289512600     -1.020910800
| 37> 9       -1.641790400     -1.418189000      0.779523800
| 38> 9       -1.792381400     -0.831391600     -1.336863600
| 39> 9       -3.119771000      0.573779800      1.598579800
| 40> 9       -4.383115600     -1.504377600      0.089127600
| 41> 9       -5.365669800      0.430528600      0.260394200
| 42> 9       -4.396020400     -0.128550600     -1.602941800
| 43> 1        5.903122371     -2.014774547     -1.145719253
| 44> *
| 45>
| 46>                          ****END OF INPUT****
 Total Charge           Charge          ....    0
 Multiplicity           Mult            ....    2
 Number of Electrons    NEL             ....  191
Dispersion correction           -0.029360812
FINAL SINGLE POINT ENERGY     -1854.293693138930
Dispersion correction             ... done (  0.0 sec)
Dispersion correction           -0.029486271
FINAL SINGLE POINT ENERGY     -1854.344150749961
Dispersion correction             ... done (  0.0 sec)
Dispersion correction           -0.029559370
FINAL SINGLE POINT ENERGY     -1854.354327466649
Dispersion correction             ... done (  0.0 sec)
FINAL SINGLE POINT ENERGY     -1854.360473115559
FINAL SINGLE POINT ENERGY     -1854.361370066269
FINAL SINGLE POINT ENERGY     -1854.363939484785
FINAL SINGLE POINT ENERGY     -1854.365684988222
FINAL SINGLE POINT ENERGY     -1854.373096690029
FINAL SINGLE POINT ENERGY     -1854.377906022892
FINAL SINGLE POINT ENERGY     -1854.378535585191
FINAL SINGLE POINT ENERGY     -1854.407157676020
FINAL SINGLE POINT ENERGY     -1854.407170851068
FINAL SINGLE POINT ENERGY     -1854.407180648676
FINAL SINGLE POINT ENERGY     -1854.407186977171
FINAL SINGLE POINT ENERGY     -1854.407191092519
FINAL SINGLE POINT ENERGY     -1854.407193968279
FINAL SINGLE POINT ENERGY     -1854.407196074662
Dispersion correction             ... done (  0.0 sec)
Dispersion correction           -0.029702476
FINAL SINGLE POINT ENERGY     -1854.407197198423
Dispersion correction             ... done (  0.0 sec)
Dispersion correction           -0.029701919
FINAL SINGLE POINT ENERGY     -1854.407198058781
Dispersion correction             ... done (  0.0 sec)
                    ***********************HURRAY********************

CARTESIAN COORDINATES (ANGSTROEM)
---------------------------------
  C      4.674951    0.153200   -0.467596
  O      5.019642   -0.694587   -1.427402
  O      5.158884    1.227076   -0.234502
  C      3.496194   -0.408073    0.374369
  C      2.117996    0.058620   -0.193270
  C      0.875456   -0.667217    0.426536
  C     -0.467080    0.108951    0.209507
  C     -1.765034   -0.750396    0.389401
  C     -3.007455    0.085345    0.478274
  C     -4.037801    0.258747   -0.597609
  F      3.518325   -1.762522    0.402170
  F      3.627045    0.048959    1.637572
  F      2.009946    1.389559    0.019024
  F      2.115132   -0.163800   -1.527472
  F      0.773440   -1.890952   -0.135857
  F      1.067316   -0.821556    1.753942
  F     -0.519886    1.127142    1.096981
  F     -0.490388    0.625223   -1.040071
  F     -1.629248   -1.481094    1.527671
  F     -1.872453   -1.595388   -0.664277
  F     -3.324071    0.547474    1.674586
  F     -4.887842   -0.790449   -0.675401
  F     -4.775307    1.351652   -0.354663
  F     -3.457571    0.389240   -1.801497
  H      5.753132   -0.305601   -1.947424

 Multiplicity           Mult            ....    2
 Number of Electrons    NEL             ....  191
 Basis Dimension        Dim             ....  750

ORBITAL ENERGIES
----------------
                 SPIN UP ORBITALS
  NO   OCC          E(Eh)            E(eV)
   0   1.0000     -24.674232      -671.4200
   1   1.0000     -24.660226      -671.0389
   2   1.0000     -24.659573      -671.0211
   3   1.0000     -24.659505      -671.0192
   4   1.0000     -24.659487      -671.0188
   5   1.0000     -24.659469      -671.0183
   6   1.0000     -24.658817      -671.0005
   7   1.0000     -24.656801      -670.9457
   8   1.0000     -24.654766      -670.8903
   9   1.0000     -24.654709      -670.8887
  10   1.0000     -24.654449      -670.8817
  11   1.0000     -24.650995      -670.7877
  12   1.0000     -24.649467      -670.7461
  13   1.0000     -24.649449      -670.7456
  14   1.0000     -19.133482      -520.6485
  15   1.0000     -19.079856      -519.1893
  16   1.0000     -10.394040      -282.8362
  17   1.0000     -10.344934      -281.5000
  18   1.0000     -10.344633      -281.4918
  19   1.0000     -10.341842      -281.4158
  20   1.0000     -10.341549      -281.4079
  21   1.0000     -10.332817      -281.1702
  22   1.0000     -10.281017      -279.7607
  23   1.0000     -10.267821      -279.4016
  24   1.0000      -1.310667       -35.6651
  25   1.0000      -1.302457       -35.4417
  26   1.0000      -1.288648       -35.0659
  27   1.0000      -1.277877       -34.7728
  28   1.0000      -1.275402       -34.7054
  29   1.0000      -1.270834       -34.5811
  30   1.0000      -1.265946       -34.4482
  31   1.0000      -1.235422       -33.6175
  32   1.0000      -1.228189       -33.4207
  33   1.0000      -1.225518       -33.3480
  34   1.0000      -1.221837       -33.2479
  35   1.0000      -1.219620       -33.1876
  36   1.0000      -1.219347       -33.1801
  37   1.0000      -1.215269       -33.0691
  38   1.0000      -1.119404       -30.4605
  39   1.0000      -1.035420       -28.1752
  40   1.0000      -0.833802       -22.6889
  41   1.0000      -0.817441       -22.2437
  42   1.0000      -0.788674       -21.4609
  43   1.0000      -0.752715       -20.4824
  44   1.0000      -0.713452       -19.4140
  45   1.0000      -0.672871       -18.3097
  46   1.0000      -0.651736       -17.7346
  47   1.0000      -0.642413       -17.4809
  48   1.0000      -0.619106       -16.8467
  49   1.0000      -0.615202       -16.7405
  50   1.0000      -0.609943       -16.5974
  51   1.0000      -0.603342       -16.4178
  52   1.0000      -0.598873       -16.2962
  53   1.0000      -0.595365       -16.2007
  54   1.0000      -0.586937       -15.9714
  55   1.0000      -0.584960       -15.9176
  56   1.0000      -0.581518       -15.8239
  57   1.0000      -0.569923       -15.5084
  58   1.0000      -0.566071       -15.4036
  59   1.0000      -0.559557       -15.2263
  60   1.0000      -0.553531       -15.0623
  61   1.0000      -0.546246       -14.8641
  62   1.0000      -0.508282       -13.8311
  63   1.0000      -0.497667       -13.5422
  64   1.0000      -0.482333       -13.1249
  65   1.0000      -0.482053       -13.1173
  66   1.0000      -0.475641       -12.9428
  67   1.0000      -0.472954       -12.8697
  68   1.0000      -0.467958       -12.7338
  69   1.0000      -0.465464       -12.6659
  70   1.0000      -0.461703       -12.5636
  71   1.0000      -0.460918       -12.5422
  72   1.0000      -0.458432       -12.4746
  73   1.0000      -0.455479       -12.3942
  74   1.0000      -0.449980       -12.2446
  75   1.0000      -0.446463       -12.1489
  76   1.0000      -0.443510       -12.0685
  77   1.0000      -0.440142       -11.9769
  78   1.0000      -0.436878       -11.8881
  79   1.0000      -0.432238       -11.7618
  80   1.0000      -0.427144       -11.6232
  81   1.0000      -0.425960       -11.5910
  82   1.0000      -0.424323       -11.5464
  83   1.0000      -0.420184       -11.4338
  84   1.0000      -0.419378       -11.4118
  85   1.0000      -0.416351       -11.3295
  86   1.0000      -0.413731       -11.2582
  87   1.0000      -0.410979       -11.1833
  88   1.0000      -0.406772       -11.0688
  89   1.0000      -0.403800       -10.9880
  90   1.0000      -0.391363       -10.6495
  91   1.0000      -0.367670       -10.0048
  92   1.0000      -0.340369        -9.2619
  93   1.0000      -0.334468        -9.1013
  94   1.0000      -0.296319        -8.0632
  95   1.0000      -0.260541        -7.0897
  96   0.0000      -0.065551        -1.7837
  97   0.0000      -0.013663        -0.3718
  98   0.0000      -0.000299        -0.0081
  99   0.0000       0.018595         0.5060
 100   0.0000       0.036539         0.9943

                 SPIN DOWN ORBITALS
  NO   OCC          E(Eh)            E(eV)
   0   1.0000     -24.669698      -671.2966
   1   1.0000     -24.660211      -671.0384
   2   1.0000     -24.659576      -671.0212
   3   1.0000     -24.659492      -671.0189
   4   1.0000     -24.659474      -671.0184
   5   1.0000     -24.659461      -671.0180
   6   1.0000     -24.658814      -671.0004
   7   1.0000     -24.656466      -670.9365
   8   1.0000     -24.654270      -670.8768
   9   1.0000     -24.654203      -670.8750
  10   1.0000     -24.654038      -670.8705
  11   1.0000     -24.650996      -670.7877
  12   1.0000     -24.649465      -670.7461
  13   1.0000     -24.648069      -670.7081
  14   1.0000     -19.133481      -520.6485
  15   1.0000     -19.079852      -519.1892
  16   1.0000     -10.394769      -282.8560
  17   1.0000     -10.345561      -281.5170
  18   1.0000     -10.344823      -281.4970
  19   1.0000     -10.341504      -281.4066
  20   1.0000     -10.341210      -281.3986
  21   1.0000     -10.332800      -281.1698
  22   1.0000     -10.281013      -279.7606
  23   1.0000     -10.252020      -278.9716
  24   1.0000      -1.309206       -35.6253
  25   1.0000      -1.302265       -35.4364
  26   1.0000      -1.288107       -35.0512
  27   1.0000      -1.277463       -34.7615
  28   1.0000      -1.274248       -34.6741
  29   1.0000      -1.270732       -34.5784
  30   1.0000      -1.258698       -34.2509
  31   1.0000      -1.235278       -33.6136
  32   1.0000      -1.227887       -33.4125
  33   1.0000      -1.224742       -33.3269
  34   1.0000      -1.221669       -33.2433
  35   1.0000      -1.218488       -33.1568
  36   1.0000      -1.217347       -33.1257
  37   1.0000      -1.215266       -33.0691
  38   1.0000      -1.119399       -30.4604
  39   1.0000      -1.035414       -28.1750
  40   1.0000      -0.826304       -22.4849
  41   1.0000      -0.810366       -22.0512
  42   1.0000      -0.783229       -21.3127
  43   1.0000      -0.750124       -20.4119
  44   1.0000      -0.712199       -19.3799
  45   1.0000      -0.669731       -18.2243
  46   1.0000      -0.648011       -17.6333
  47   1.0000      -0.642184       -17.4747
  48   1.0000      -0.617672       -16.8077
  49   1.0000      -0.613426       -16.6922
  50   1.0000      -0.608321       -16.5533
  51   1.0000      -0.601528       -16.3684
  52   1.0000      -0.597834       -16.2679
  53   1.0000      -0.590202       -16.0602
  54   1.0000      -0.586548       -15.9608
  55   1.0000      -0.583622       -15.8812
  56   1.0000      -0.580855       -15.8059
  57   1.0000      -0.569319       -15.4920
  58   1.0000      -0.564998       -15.3744
  59   1.0000      -0.558446       -15.1961
  60   1.0000      -0.552724       -15.0404
  61   1.0000      -0.546026       -14.8581
  62   1.0000      -0.497663       -13.5421
  63   1.0000      -0.482842       -13.1388
  64   1.0000      -0.482097       -13.1185
  65   1.0000      -0.478446       -13.0192
  66   1.0000      -0.474220       -12.9042
  67   1.0000      -0.471816       -12.8388
  68   1.0000      -0.466101       -12.6833
  69   1.0000      -0.463839       -12.6217
  70   1.0000      -0.461152       -12.5486
  71   1.0000      -0.460163       -12.5217
  72   1.0000      -0.456374       -12.4186
  73   1.0000      -0.454833       -12.3766
  74   1.0000      -0.448662       -12.2087
  75   1.0000      -0.446085       -12.1386
  76   1.0000      -0.442463       -12.0400
  77   1.0000      -0.438438       -11.9305
  78   1.0000      -0.435043       -11.8381
  79   1.0000      -0.431803       -11.7499
  80   1.0000      -0.425889       -11.5890
  81   1.0000      -0.424682       -11.5562
  82   1.0000      -0.423526       -11.5247
  83   1.0000      -0.419844       -11.4245
  84   1.0000      -0.418815       -11.3965
  85   1.0000      -0.415917       -11.3177
  86   1.0000      -0.413471       -11.2511
  87   1.0000      -0.410487       -11.1699
  88   1.0000      -0.405702       -11.0397
  89   1.0000      -0.402436       -10.9508
  90   1.0000      -0.389468       -10.5980
  91   1.0000      -0.366128        -9.9628
  92   1.0000      -0.340285        -9.2596
  93   1.0000      -0.332950        -9.0600
  94   1.0000      -0.296122        -8.0579
  95   0.0000      -0.135127        -3.6770
  96   0.0000      -0.064809        -1.7635
  97   0.0000      -0.010480        -0.2852
  98   0.0000       0.004974         0.1353
  99   0.0000       0.022783         0.6199

MULLIKEN ATOMIC CHARGES AND SPIN POPULATIONS
--------------------------------------------
   0 C :    0.223127    0.000220
   1 O :   -0.338790    0.000016
   2 O :   -0.287694    0.000171
   3 C :    0.376457    0.000480
   4 C :    0.270215    0.002274
   5 C :    0.286285    0.005448
   6 C :    0.273944    0.030792
   7 C :    0.343990   -0.016427
   8 C :    0.147207    0.852497
   9 C :    0.414401   -0.018358
  10 F :   -0.159637   -0.000004
  11 F :   -0.154347    0.000036
  12 F :   -0.153430   -0.000012
  13 F :   -0.153710    0.000065
  14 F :   -0.150032   -0.000172
  15 F :   -0.149177    0.000144
  16 F :   -0.152704   -0.000247
  17 F :   -0.154125   -0.000501
  18 F :   -0.154757    0.013536
  19 F :   -0.152639    0.005214
  20 F :   -0.122318    0.086845
  21 F :   -0.149846    0.026430
  22 F :   -0.141278    0.004155
  23 F :   -0.143608    0.007374
  24 H :    0.382465    0.000024
Sum of atomic charges         :   -0.0000000

LOEWDIN ATOMIC CHARGES AND SPIN POPULATIONS
-------------------------------------------
   0 C :   -0.490396    0.000179
   1 O :    0.156841    0.000027
   2 O :    0.135998    0.000145
   3 C :   -0.452634    0.000597
   4 C :   -0.455704    0.001748
   5 C :   -0.458651    0.005035
   6 C :   -0.454606    0.022791
   7 C :   -0.481697    0.062852
   8 C :   -0.166355    0.667722
   9 C :   -0.671949    0.059080
  10 F :    0.209784   -0.000012
  11 F :    0.217339    0.000042
  12 F :    0.225095   -0.000053
  13 F :    0.223361    0.000094
  14 F :    0.225064   -0.000101
  15 F :    0.226126    0.000251
  16 F :    0.225250    0.001108
  17 F :    0.224553    0.000704
  18 F :    0.212663    0.014479
  19 F :    0.219862    0.006737
  20 F :    0.266589    0.110765
  21 F :    0.196116    0.030036
  22 F :    0.218438    0.005735
  23 F :    0.215001    0.010028
  24 H :    0.233912    0.000011

  Mayer bond orders larger than 0.100000
B(  0-C ,  1-O ) :   1.3151 B(  0-C ,  2-O ) :   2.0743 B(  0-C ,  3-C ) :   0.9054
B(  1-O , 24-H ) :   0.8194 B(  3-C ,  4-C ) :   0.9560 B(  3-C , 10-F ) :   1.0983
B(  3-C , 11-F ) :   1.1212 B(  4-C ,  5-C ) :   0.9461 B(  4-C , 12-F ) :   1.0916
B(  4-C , 13-F ) :   1.0903 B(  5-C ,  6-C ) :   0.9457 B(  5-C , 14-F ) :   1.0960
B(  5-C , 15-F ) :   1.0983 B(  6-C ,  7-C ) :   0.9470 B(  6-C , 16-F ) :   1.0905
B(  6-C , 17-F ) :   1.0928 B(  7-C ,  8-C ) :   1.0078 B(  7-C , 18-F ) :   1.0851
B(  7-C , 19-F ) :   1.1028 B(  8-C ,  9-C ) :   1.0557 B(  8-C , 20-F ) :   1.1486
B(  9-C , 21-F ) :   1.1450 B(  9-C , 22-F ) :   1.1557 B(  9-C , 23-F ) :   1.1484

Dispersion correction           -0.029701153
FINAL SINGLE POINT ENERGY     -1854.407198636901

DIPOLE MOMENT
-------------

Method             : SCF
Type of density    : Electron Density
Multiplicity       :   2
Irrep              :   0
Energy             : -1854.3774974837590435 Eh
Relativity type    :
Basis              : AO
                                X                 Y                 Z
Electronic contribution:    -13.482238361      -0.876618364       2.463554750
Nuclear contribution   :     14.101283594       0.604175170      -3.161106146
                        -----------------------------------------
Total Dipole Moment    :      0.619045233      -0.272443194      -0.697551395
                        -----------------------------------------
Magnitude (a.u.)       :      0.971607042
Magnitude (Debye)      :      2.469628836

Rotational constants in cm-1:             0.020561             0.004032             0.003960
Rotational constants in MHz :           616.396607           120.883958           118.722429

                             ****ORCA TERMINATED NORMALLY****
TOTAL RUN TIME: 0 days 1 hours 10 minutes 28 seconds 141 msec
