                         Program Version 6.0.1  -  RELEASE   -
|  1> !B3LYP def2-TZVP freq d3 TightSCF SlowConv defgrid2
|  2>
|  3> %pal
|  4> nprocs 20
|  5> end
|  6>
|  7> %scf
|  8> MaxIter 1500
|  9> end
| 10>
| 11> %maxcore 8000
| 12>
| 13> !CPCM
| 14> %cpcm smd true
| 15> SMDsolvent "ACETONITRILE"
| 16> end
| 17>
| 18> * xyz -1 2
| 19> 6        4.428790000     -0.683608000     -0.369711000
| 20> 8        4.003666000     -1.071271000     -1.481565000
| 21> 8        5.466817000     -0.999341000      0.247165000
| 22> 6        3.545268000      0.309620000      0.329601000
| 23> 6        2.249637000      0.902277000     -0.132672000
| 24> 6        1.006343000     -0.028746000      0.090703000
| 25> 6       -0.384578000      0.689575000      0.027427000
| 26> 6       -1.586352000     -0.306246000     -0.150756000
| 27> 6       -2.967710000      0.306846000      0.250988000
| 28> 6       -4.206693000     -0.512931000     -0.234665000
| 29> 9        3.782930000      0.581803000      1.621217000
| 30> 9        1.999796000      2.052836000      0.571894000
| 31> 9        2.292739000      1.233697000     -1.445350000
| 32> 9        1.023400000     -1.010548000     -0.832189000
| 33> 9        1.124685000     -0.589523000      1.318067000
| 34> 9       -0.568324000      1.390359000      1.165210000
| 35> 9       -0.397016000      1.550749000     -1.009765000
| 36> 9       -1.378789000     -1.399542000      0.611277000
| 37> 9       -1.640576000     -0.686157000     -1.442579000
| 38> 9       -3.076837000      1.548410000     -0.264886000
| 39> 9       -3.036733000      0.382106000      1.593164000
| 40> 9       -4.096502000     -1.795192000      0.119331000
| 41> 9       -5.300045000     -0.002380000      0.336557000
| 42> 9       -4.344095000     -0.437185000     -1.557656000
| 43> *
| 44>
| 45>                          ****END OF INPUT****

CARTESIAN COORDINATES (ANGSTROEM)
---------------------------------
  C      4.428790   -0.683608   -0.369711
  O      4.003666   -1.071271   -1.481565
  O      5.466817   -0.999341    0.247165
  C      3.545268    0.309620    0.329601
  C      2.249637    0.902277   -0.132672
  C      1.006343   -0.028746    0.090703
  C     -0.384578    0.689575    0.027427
  C     -1.586352   -0.306246   -0.150756
  C     -2.967710    0.306846    0.250988
  C     -4.206693   -0.512931   -0.234665
  F      3.782930    0.581803    1.621217
  F      1.999796    2.052836    0.571894
  F      2.292739    1.233697   -1.445350
  F      1.023400   -1.010548   -0.832189
  F      1.124685   -0.589523    1.318067
  F     -0.568324    1.390359    1.165210
  F     -0.397016    1.550749   -1.009765
  F     -1.378789   -1.399542    0.611277
  F     -1.640576   -0.686157   -1.442579
  F     -3.076837    1.548410   -0.264886
  F     -3.036733    0.382106    1.593164
  F     -4.096502   -1.795192    0.119331
  F     -5.300045   -0.002380    0.336557
  F     -4.344095   -0.437185   -1.557656

 Total Charge           Charge          ....   -1
 Multiplicity           Mult            ....    2
 Number of Electrons    NEL             ....  191
 Basis Dimension        Dim             ....  744

ORBITAL ENERGIES
----------------
                 SPIN UP ORBITALS
  NO   OCC          E(Eh)            E(eV)
   0   1.0000     -24.744463      -673.3311
   1   1.0000     -24.743533      -673.3058
   2   1.0000     -24.742891      -673.2883
   3   1.0000     -24.742568      -673.2795
   4   1.0000     -24.741545      -673.2517
   5   1.0000     -24.741387      -673.2474
   6   1.0000     -24.741335      -673.2460
   7   1.0000     -24.737448      -673.1402
   8   1.0000     -24.737274      -673.1354
   9   1.0000     -24.729644      -672.9278
  10   1.0000     -24.729432      -672.9221
  11   1.0000     -24.713572      -672.4905
  12   1.0000     -24.712823      -672.4701
  13   1.0000     -24.709139      -672.3699
  14   1.0000     -19.053692      -518.4773
  15   1.0000     -19.051436      -518.4159
  16   1.0000     -10.460553      -284.6461
  17   1.0000     -10.406140      -283.1655
  18   1.0000     -10.405951      -283.1603
  19   1.0000     -10.401492      -283.0390
  20   1.0000     -10.389972      -282.7255
  21   1.0000     -10.376466      -282.3580
  22   1.0000     -10.270749      -279.4813
  23   1.0000     -10.249944      -278.9152
  24   1.0000      -1.353199       -36.8224
  25   1.0000      -1.327614       -36.1262
  26   1.0000      -1.311585       -35.6900
  27   1.0000      -1.305451       -35.5231
  28   1.0000      -1.298442       -35.3324
  29   1.0000      -1.280336       -34.8397
  30   1.0000      -1.266243       -34.4562
  31   1.0000      -1.259890       -34.2833
  32   1.0000      -1.258330       -34.2409
  33   1.0000      -1.251360       -34.0512
  34   1.0000      -1.248259       -33.9668
  35   1.0000      -1.245260       -33.8852
  36   1.0000      -1.239604       -33.7313
  37   1.0000      -1.221153       -33.2293
  38   1.0000      -1.015876       -27.6434
  39   1.0000      -0.931126       -25.3372
  40   1.0000      -0.844693       -22.9853
  41   1.0000      -0.822719       -22.3873
  42   1.0000      -0.796945       -21.6860
  43   1.0000      -0.757451       -20.6113
  44   1.0000      -0.712681       -19.3930
  45   1.0000      -0.686118       -18.6702
  46   1.0000      -0.663983       -18.0679
  47   1.0000      -0.649133       -17.6638
  48   1.0000      -0.644103       -17.5269
  49   1.0000      -0.637392       -17.3443
  50   1.0000      -0.625374       -17.0173
  51   1.0000      -0.622505       -16.9392
  52   1.0000      -0.620086       -16.8734
  53   1.0000      -0.607877       -16.5412
  54   1.0000      -0.603932       -16.4338
  55   1.0000      -0.594811       -16.1856
  56   1.0000      -0.593380       -16.1467
  57   1.0000      -0.583785       -15.8856
  58   1.0000      -0.574360       -15.6291
  59   1.0000      -0.568734       -15.4760
  60   1.0000      -0.544046       -14.8043
  61   1.0000      -0.516152       -14.0452
  62   1.0000      -0.511137       -13.9087
  63   1.0000      -0.506440       -13.7809
  64   1.0000      -0.501257       -13.6399
  65   1.0000      -0.499517       -13.5925
  66   1.0000      -0.498244       -13.5579
  67   1.0000      -0.491732       -13.3807
  68   1.0000      -0.487290       -13.2598
  69   1.0000      -0.484963       -13.1965
  70   1.0000      -0.479052       -13.0357
  71   1.0000      -0.475552       -12.9404
  72   1.0000      -0.472099       -12.8465
  73   1.0000      -0.463060       -12.6005
  74   1.0000      -0.462006       -12.5718
  75   1.0000      -0.458208       -12.4685
  76   1.0000      -0.452398       -12.3104
  77   1.0000      -0.452237       -12.3060
  78   1.0000      -0.447896       -12.1879
  79   1.0000      -0.446089       -12.1387
  80   1.0000      -0.441619       -12.0171
  81   1.0000      -0.441258       -12.0073
  82   1.0000      -0.438836       -11.9413
  83   1.0000      -0.435978       -11.8636
  84   1.0000      -0.430461       -11.7134
  85   1.0000      -0.423060       -11.5121
  86   1.0000      -0.418541       -11.3891
  87   1.0000      -0.406097       -11.0505
  88   1.0000      -0.393170       -10.6987
  89   1.0000      -0.389533       -10.5997
  90   1.0000      -0.378549       -10.3008
  91   1.0000      -0.344294        -9.3687
  92   1.0000      -0.248572        -6.7640
  93   1.0000      -0.242770        -6.6061
  94   1.0000      -0.231601        -6.3022
  95   1.0000      -0.220256        -5.9935
  96   0.0000      -0.000113        -0.0031
  97   0.0000       0.010459         0.2846
  98   0.0000       0.041078         1.1178
  99   0.0000       0.057594         1.5672
 100   0.0000       0.084505         2.2995

                 SPIN DOWN ORBITALS
  NO   OCC          E(Eh)            E(eV)
   0   1.0000     -24.744464      -673.3311
   1   1.0000     -24.743533      -673.3058
   2   1.0000     -24.742891      -673.2883
   3   1.0000     -24.742563      -673.2794
   4   1.0000     -24.741541      -673.2516
   5   1.0000     -24.741388      -673.2474
   6   1.0000     -24.741335      -673.2459
   7   1.0000     -24.737437      -673.1399
   8   1.0000     -24.737273      -673.1354
   9   1.0000     -24.729597      -672.9265
  10   1.0000     -24.729389      -672.9209
  11   1.0000     -24.713141      -672.4788
  12   1.0000     -24.712311      -672.4562
  13   1.0000     -24.705100      -672.2599
  14   1.0000     -19.051478      -518.4171
  15   1.0000     -19.050250      -518.3837
  16   1.0000     -10.460546      -284.6459
  17   1.0000     -10.406098      -283.1643
  18   1.0000     -10.405922      -283.1595
  19   1.0000     -10.401338      -283.0348
  20   1.0000     -10.389202      -282.7045
  21   1.0000     -10.377206      -282.3781
  22   1.0000     -10.257474      -279.1201
  23   1.0000     -10.251017      -278.9444
  24   1.0000      -1.353193       -36.8223
  25   1.0000      -1.327543       -36.1243
  26   1.0000      -1.311461       -35.6867
  27   1.0000      -1.305412       -35.5221
  28   1.0000      -1.298223       -35.3264
  29   1.0000      -1.279045       -34.8046
  30   1.0000      -1.266238       -34.4561
  31   1.0000      -1.259884       -34.2832
  32   1.0000      -1.258298       -34.2400
  33   1.0000      -1.251250       -34.0483
  34   1.0000      -1.248018       -33.9603
  35   1.0000      -1.241107       -33.7722
  36   1.0000      -1.235681       -33.6246
  37   1.0000      -1.219642       -33.1882
  38   1.0000      -1.012930       -27.5632
  39   1.0000      -0.927484       -25.2381
  40   1.0000      -0.844239       -22.9729
  41   1.0000      -0.820237       -22.3198
  42   1.0000      -0.791324       -21.5330
  43   1.0000      -0.751173       -20.4404
  44   1.0000      -0.707737       -19.2585
  45   1.0000      -0.683587       -18.6013
  46   1.0000      -0.657993       -17.9049
  47   1.0000      -0.648990       -17.6599
  48   1.0000      -0.643348       -17.5064
  49   1.0000      -0.637359       -17.3434
  50   1.0000      -0.624981       -17.0066
  51   1.0000      -0.621610       -16.9149
  52   1.0000      -0.619116       -16.8470
  53   1.0000      -0.607450       -16.5295
  54   1.0000      -0.603266       -16.4157
  55   1.0000      -0.593627       -16.1534
  56   1.0000      -0.591302       -16.0901
  57   1.0000      -0.582773       -15.8581
  58   1.0000      -0.572993       -15.5919
  59   1.0000      -0.565933       -15.3998
  60   1.0000      -0.540254       -14.7011
  61   1.0000      -0.516057       -14.0426
  62   1.0000      -0.511057       -13.9066
  63   1.0000      -0.506393       -13.7797
  64   1.0000      -0.500830       -13.6283
  65   1.0000      -0.499432       -13.5902
  66   1.0000      -0.494677       -13.4609
  67   1.0000      -0.488117       -13.2823
  68   1.0000      -0.484921       -13.1954
  69   1.0000      -0.478857       -13.0304
  70   1.0000      -0.475640       -12.9428
  71   1.0000      -0.475228       -12.9316
  72   1.0000      -0.467612       -12.7244
  73   1.0000      -0.462782       -12.5929
  74   1.0000      -0.457082       -12.4378
  75   1.0000      -0.455328       -12.3901
  76   1.0000      -0.452199       -12.3050
  77   1.0000      -0.451875       -12.2961
  78   1.0000      -0.446775       -12.1574
  79   1.0000      -0.445821       -12.1314
  80   1.0000      -0.441510       -12.0141
  81   1.0000      -0.440888       -11.9972
  82   1.0000      -0.437855       -11.9147
  83   1.0000      -0.434331       -11.8187
  84   1.0000      -0.429752       -11.6941
  85   1.0000      -0.421994       -11.4831
  86   1.0000      -0.417285       -11.3549
  87   1.0000      -0.404198       -10.9988
  88   1.0000      -0.391320       -10.6483
  89   1.0000      -0.380305       -10.3486
  90   1.0000      -0.376424       -10.2430
  91   1.0000      -0.341843        -9.3020
  92   1.0000      -0.237225        -6.4552
  93   1.0000      -0.235291        -6.4026
  94   1.0000      -0.228184        -6.2092
  95   0.0000      -0.093251        -2.5375
  96   0.0000       0.002395         0.0652
  97   0.0000       0.011540         0.3140
  98   0.0000       0.042893         1.1672
  99   0.0000       0.061276         1.6674

MULLIKEN ATOMIC CHARGES AND SPIN POPULATIONS
--------------------------------------------
   0 C :    0.191950   -0.056892
   1 O :   -0.496027    0.082790
   2 O :   -0.504726    0.047037
   3 C :    0.058454    0.802726
   4 C :    0.424304   -0.008890
   5 C :    0.291209    0.034643
   6 C :    0.334959    0.005632
   7 C :    0.312338    0.002434
   8 C :    0.324998    0.000462
   9 C :    0.475514    0.000242
  10 F :   -0.191553    0.073127
  11 F :   -0.202728    0.007173
  12 F :   -0.185169    0.007603
  13 F :   -0.172875    0.001043
  14 F :   -0.185108    0.000334
  15 F :   -0.172837    0.000250
  16 F :   -0.171936    0.000006
  17 F :   -0.170037    0.000084
  18 F :   -0.168970    0.000096
  19 F :   -0.166872    0.000007
  20 F :   -0.163413    0.000025
  21 F :   -0.155231   -0.000005
  22 F :   -0.153343    0.000071
  23 F :   -0.152903    0.000001
Sum of atomic charges         :   -1.0000000

LOEWDIN ATOMIC CHARGES AND SPIN POPULATIONS
-------------------------------------------
   0 C :   -0.714523    0.033150
   1 O :   -0.070985    0.071871
   2 O :   -0.076987    0.039976
   3 C :   -0.182089    0.625049
   4 C :   -0.471516    0.072306
   5 C :   -0.450759    0.026814
   6 C :   -0.455529    0.007078
   7 C :   -0.456838    0.002247
   8 C :   -0.463350    0.000723
   9 C :   -0.664094    0.000202
  10 F :    0.196099    0.099556
  11 F :    0.173092    0.008224
  12 F :    0.198083    0.009788
  13 F :    0.221896    0.001113
  14 F :    0.208473    0.001327
  15 F :    0.219376    0.000357
  16 F :    0.220255   -0.000002
  17 F :    0.223027   -0.000012
  18 F :    0.223570    0.000119
  19 F :    0.222112   -0.000005
  20 F :    0.223837    0.000028
  21 F :    0.225239   -0.000005
  22 F :    0.224607    0.000090
  23 F :    0.227007    0.000005

  Mayer bond orders larger than 0.100000
B(  0-C ,  1-O ) :   1.8370 B(  0-C ,  2-O ) :   1.8597 B(  0-C ,  3-C ) :   0.9523
B(  3-C ,  4-C ) :   0.9666 B(  3-C , 10-F ) :   1.0434 B(  4-C ,  5-C ) :   0.9224
B(  4-C , 11-F ) :   1.0443 B(  4-C , 12-F ) :   1.0923 B(  5-C ,  6-C ) :   0.9245
B(  5-C , 13-F ) :   1.0927 B(  5-C , 14-F ) :   1.0620 B(  6-C ,  7-C ) :   0.9273
B(  6-C , 15-F ) :   1.0772 B(  6-C , 16-F ) :   1.0818 B(  7-C ,  8-C ) :   0.9236
B(  7-C , 17-F ) :   1.0794 B(  7-C , 18-F ) :   1.0868 B(  8-C ,  9-C ) :   0.9692
B(  8-C , 19-F ) :   1.0861 B(  8-C , 20-F ) :   1.0955 B(  9-C , 21-F ) :   1.1457
B(  9-C , 22-F ) :   1.1465 B(  9-C , 23-F ) :   1.1562

Dispersion correction           -0.042347665
FINAL SINGLE POINT ENERGY     -1853.284031415505

DIPOLE MOMENT
-------------

Method             : SCF
Type of density    : Electron Density
Multiplicity       :   2
Irrep              :   0
Energy             : -1853.2416837502751150 Eh
Relativity type    :
Basis              : AO
                                X                 Y                 Z
Electronic contribution:    -18.484531569       3.268471616       1.811672408
Nuclear contribution   :     10.058547755      -1.704781606      -0.978777738
                        -----------------------------------------
Total Dipole Moment    :     -8.425983814       1.563690010       0.832894670
                        -----------------------------------------
Magnitude (a.u.)       :      8.610228987
Magnitude (Debye)      :     21.885462819

VIBRATIONAL FREQUENCIES
-----------------------

Scaling factor for frequencies =  1.000000000  (already applied!)

     0:       0.00 cm**-1
     1:       0.00 cm**-1
     2:       0.00 cm**-1
     3:       0.00 cm**-1
     4:       0.00 cm**-1
     5:       0.00 cm**-1
     6:      22.13 cm**-1
     7:      27.19 cm**-1
     8:      30.22 cm**-1
     9:      43.78 cm**-1
    10:      49.84 cm**-1
    11:      59.63 cm**-1
    12:      65.65 cm**-1
    13:      80.04 cm**-1
    14:     117.33 cm**-1
    15:     135.84 cm**-1
    16:     177.43 cm**-1
    17:     181.39 cm**-1
    18:     194.35 cm**-1
    19:     202.43 cm**-1
    20:     220.41 cm**-1
    21:     238.30 cm**-1
    22:     254.64 cm**-1
    23:     257.28 cm**-1
    24:     286.20 cm**-1
    25:     288.86 cm**-1
    26:     291.78 cm**-1
    27:     312.37 cm**-1
    28:     318.29 cm**-1
    29:     342.52 cm**-1
    30:     353.20 cm**-1
    31:     359.59 cm**-1
    32:     366.53 cm**-1
    33:     374.08 cm**-1
    34:     382.92 cm**-1
    35:     405.05 cm**-1
    36:     458.71 cm**-1
    37:     515.54 cm**-1
    38:     524.39 cm**-1
    39:     555.21 cm**-1
    40:     559.62 cm**-1
    41:     567.64 cm**-1
    42:     592.25 cm**-1
    43:     600.37 cm**-1
    44:     631.00 cm**-1
    45:     659.96 cm**-1
    46:     688.36 cm**-1
    47:     715.69 cm**-1
    48:     734.00 cm**-1
    49:     750.86 cm**-1
    50:     775.21 cm**-1
    51:     869.45 cm**-1
    52:    1005.51 cm**-1
    53:    1043.90 cm**-1
    54:    1106.15 cm**-1
    55:    1112.37 cm**-1
    56:    1127.12 cm**-1
    57:    1135.70 cm**-1
    58:    1145.50 cm**-1
    59:    1152.66 cm**-1
    60:    1158.76 cm**-1
    61:    1168.66 cm**-1
    62:    1181.64 cm**-1
    63:    1186.74 cm**-1
    64:    1207.90 cm**-1
    65:    1219.70 cm**-1
    66:    1248.86 cm**-1
    67:    1275.81 cm**-1
    68:    1287.34 cm**-1
    69:    1333.21 cm**-1
    70:    1357.37 cm**-1
    71:    1649.10 cm**-1

IR SPECTRUM
-----------

 Mode   freq       eps      Int      T**2         TX        TY        TZ
       cm**-1   L/(mol*cm) km/mol    a.u.
----------------------------------------------------------------------------
  6:     22.13   0.000443    2.24  0.006245  (-0.029950 -0.055482  0.047640)
  7:     27.19   0.000803    4.06  0.009212  (-0.027067 -0.042926  0.081465)
  8:     30.22   0.001029    5.20  0.010630  ( 0.066738  0.075326  0.022402)
  9:     43.78   0.000370    1.87  0.002641  ( 0.041687  0.029957 -0.002337)
 10:     49.84   0.000122    0.62  0.000763  ( 0.013930  0.021141  0.011027)
 11:     59.63   0.000117    0.59  0.000613  (-0.017710 -0.016774 -0.004215)
 12:     65.65   0.000253    1.28  0.001205  (-0.034632 -0.002338  0.000065)
 13:     80.04   0.000103    0.52  0.000403  ( 0.005111  0.017373 -0.008652)
 14:    117.33   0.000986    4.98  0.002622  (-0.047750  0.012267  0.013848)
 15:    135.84   0.000224    1.13  0.000514  (-0.017615  0.005463 -0.013189)
 16:    177.43   0.000958    4.84  0.001685  (-0.024878  0.013962 -0.029516)
 17:    181.39   0.000544    2.75  0.000936  (-0.001611  0.012826 -0.027727)
 18:    194.35   0.002096   10.59  0.003365  ( 0.004723  0.009375 -0.057055)
 19:    202.43   0.000036    0.18  0.000056  (-0.002070  0.007169  0.000652)
 20:    220.41   0.000384    1.94  0.000544  (-0.006110  0.022083 -0.004331)
 21:    238.30   0.000004    0.02  0.000005  (-0.000012 -0.001658 -0.001406)
 22:    254.64   0.000027    0.14  0.000033  ( 0.004769 -0.001647 -0.002724)
 23:    257.28   0.000070    0.35  0.000085  ( 0.008332  0.003489  0.001897)
 24:    286.20   0.003208   16.21  0.003498  (-0.056531 -0.000565  0.017377)
 25:    288.86   0.000116    0.59  0.000125  ( 0.003414  0.010572  0.001341)
 26:    291.78   0.000257    1.30  0.000274  (-0.004953  0.000331  0.015805)
 27:    312.37   0.000244    1.23  0.000244  ( 0.009760  0.008546 -0.008698)
 28:    318.29   0.000716    3.62  0.000702  (-0.021825  0.008382  0.012462)
 29:    342.52   0.000130    0.65  0.000118  (-0.007366 -0.001004  0.007924)
 30:    353.20   0.000269    1.36  0.000238  ( 0.001892  0.000067  0.015299)
 31:    359.59   0.000003    0.02  0.000003  (-0.000599 -0.000255 -0.001518)
 32:    366.53   0.000075    0.38  0.000064  (-0.007923  0.000406  0.001013)
 33:    374.08   0.000340    1.72  0.000283  (-0.016228  0.001417  0.004242)
 34:    382.92   0.000638    3.22  0.000520  ( 0.020941 -0.002641 -0.008607)
 35:    405.05   0.000371    1.87  0.000285  ( 0.009599  0.011511 -0.007800)
 36:    458.71   0.000160    0.81  0.000109  (-0.004108  0.003709 -0.008857)
 37:    515.54   0.001145    5.78  0.000693  (-0.025322 -0.003949  0.006001)
 38:    524.39   0.005861   29.62  0.003488  (-0.053274  0.023343  0.010248)
 39:    555.21   0.003934   19.88  0.002211  ( 0.001151  0.046619 -0.006017)
 40:    559.62   0.004665   23.57  0.002601  ( 0.050856 -0.002126  0.003211)
 41:    567.64   0.008803   44.49  0.004839  (-0.059886 -0.026932 -0.022972)
 42:    592.25   0.000179    0.90  0.000094  ( 0.003399 -0.003148  0.008533)
 43:    600.37   0.002580   13.04  0.001341  ( 0.036388 -0.002270  0.003459)
 44:    631.00   0.003704   18.72  0.001832  ( 0.038628  0.016308  0.008588)
 45:    659.96   0.040195  203.13  0.019006  (-0.137862  0.000495 -0.000468)
 46:    688.36   0.017541   88.64  0.007952  (-0.088017  0.013174  0.005610)
 47:    715.69   0.001001    5.06  0.000437  (-0.010770  0.016649  0.006596)
 48:    734.00   0.008058   40.72  0.003426  (-0.033792 -0.047738 -0.002242)
 49:    750.86   0.007443   37.61  0.003093  (-0.047693  0.005804  0.028019)
 50:    775.21   0.008020   40.53  0.003229  (-0.012771  0.046505  0.030046)
 51:    869.45   0.004359   22.03  0.001564  (-0.019290  0.024822  0.024005)
 52:   1005.51   0.010466   52.89  0.003248  ( 0.055955 -0.007562  0.007749)
 53:   1043.90   0.034893  176.33  0.010431  (-0.024573 -0.096670 -0.021953)
 54:   1106.15   0.007246   36.62  0.002044  ( 0.033136 -0.018283 -0.024738)
 55:   1112.37   0.055908  282.54  0.015684  (-0.004998  0.023102 -0.122987)
 56:   1127.12   0.074839  378.21  0.020721  ( 0.000672  0.141783  0.024854)
 57:   1135.70   0.036793  185.94  0.010110  (-0.002895  0.079642  0.061308)
 58:   1145.50   0.036621  185.07  0.009976  (-0.016036  0.046511 -0.086925)
 59:   1152.66   0.104995  530.60  0.028425  (-0.006958  0.027767 -0.166151)
 60:   1158.76   0.088879  449.16  0.023936  ( 0.057675 -0.137797 -0.040263)
 61:   1168.66   0.082846  418.67  0.022122  (-0.011767 -0.030333  0.145133)
 62:   1181.64   0.006406   32.37  0.001692  (-0.040416 -0.007333  0.002160)
 63:   1186.74   0.053810  271.93  0.014150  (-0.004452  0.056296 -0.104694)
 64:   1207.90   0.024802  125.34  0.006408  (-0.001286  0.014510  0.078711)
 65:   1219.70   0.007110   35.93  0.001819  ( 0.013307 -0.004397  0.040282)
 66:   1248.86   0.010039   50.73  0.002509  ( 0.040564 -0.010877 -0.027290)
 67:   1275.81   0.041837  211.43  0.010233  (-0.057174  0.074099  0.038391)
 68:   1287.34   0.020272  102.44  0.004914  (-0.013772  0.060483  0.032651)
 69:   1333.21   0.044078  222.75  0.010317  (-0.099521  0.020294  0.000902)
 70:   1357.37   0.003134   15.84  0.000721  (-0.012301  0.022679  0.007413)
 71:   1649.10   0.143334  724.35  0.027123  (-0.112849 -0.000049 -0.119953)

--------------------------
THERMOCHEMISTRY AT 298.15K
--------------------------

Temperature         ...   298.15 K
Pressure            ...     1.00 atm
Total Mass          ...   394.06 AMU
Quasi RRHO          ...     True
Cut-Off Frequency   ...     1.00 cm^-1

Throughout the following assumptions are being made:
  (1) The electronic state is orbitally nondegenerate
      but the spin degeneracy is treated
  (2) There are no thermally accessible electronically excited states
  (3) Hindered rotations indicated by low frequency modes are not
      treated as such but are treated as vibrations and this may
      cause some error
  (4) All equations used are the standard statistical mechanics
      equations for an ideal gas
  (5) All vibrations are strictly harmonic

freq.      22.13  E(vib)   ...       0.56
freq.      27.19  E(vib)   ...       0.55
freq.      30.22  E(vib)   ...       0.55
freq.      43.78  E(vib)   ...       0.53
freq.      49.84  E(vib)   ...       0.52
freq.      59.63  E(vib)   ...       0.51
freq.      65.65  E(vib)   ...       0.50
freq.      80.04  E(vib)   ...       0.49
freq.     117.33  E(vib)   ...       0.44
freq.     135.84  E(vib)   ...       0.42
freq.     177.43  E(vib)   ...       0.37
freq.     181.39  E(vib)   ...       0.37
freq.     194.35  E(vib)   ...       0.36
freq.     202.43  E(vib)   ...       0.35
freq.     220.41  E(vib)   ...       0.33
freq.     238.30  E(vib)   ...       0.32
freq.     254.64  E(vib)   ...       0.30
freq.     257.28  E(vib)   ...       0.30
freq.     286.20  E(vib)   ...       0.27
freq.     288.86  E(vib)   ...       0.27
freq.     291.78  E(vib)   ...       0.27
freq.     312.37  E(vib)   ...       0.25
freq.     318.29  E(vib)   ...       0.25
freq.     342.52  E(vib)   ...       0.23
freq.     353.20  E(vib)   ...       0.22
freq.     359.59  E(vib)   ...       0.22
freq.     366.53  E(vib)   ...       0.22
freq.     374.08  E(vib)   ...       0.21
freq.     382.92  E(vib)   ...       0.20
freq.     405.05  E(vib)   ...       0.19
freq.     458.71  E(vib)   ...       0.16
freq.     515.54  E(vib)   ...       0.13
freq.     524.39  E(vib)   ...       0.13
freq.     555.21  E(vib)   ...       0.12
freq.     559.62  E(vib)   ...       0.12
freq.     567.64  E(vib)   ...       0.11
freq.     592.25  E(vib)   ...       0.10
freq.     600.37  E(vib)   ...       0.10
freq.     631.00  E(vib)   ...       0.09
freq.     659.96  E(vib)   ...       0.08
freq.     688.36  E(vib)   ...       0.07
freq.     715.69  E(vib)   ...       0.07
freq.     734.00  E(vib)   ...       0.06
freq.     750.86  E(vib)   ...       0.06
freq.     775.21  E(vib)   ...       0.05
freq.     869.45  E(vib)   ...       0.04
freq.    1005.51  E(vib)   ...       0.02
freq.    1043.90  E(vib)   ...       0.02
freq.    1106.15  E(vib)   ...       0.02
freq.    1112.37  E(vib)   ...       0.01
freq.    1127.12  E(vib)   ...       0.01
freq.    1135.70  E(vib)   ...       0.01
freq.    1145.50  E(vib)   ...       0.01
freq.    1152.66  E(vib)   ...       0.01
freq.    1158.76  E(vib)   ...       0.01
freq.    1168.66  E(vib)   ...       0.01
freq.    1181.64  E(vib)   ...       0.01
freq.    1186.74  E(vib)   ...       0.01
freq.    1207.90  E(vib)   ...       0.01
freq.    1219.70  E(vib)   ...       0.01
freq.    1248.86  E(vib)   ...       0.01
freq.    1275.81  E(vib)   ...       0.01
freq.    1287.34  E(vib)   ...       0.01
freq.    1333.21  E(vib)   ...       0.01
freq.    1357.37  E(vib)   ...       0.01
freq.    1649.10  E(vib)   ...       0.00

------------
INNER ENERGY
------------

The inner energy is: U= E(el) + E(ZPE) + E(vib) + E(rot) + E(trans)
    E(el)   - is the total energy from the electronic structure calculation
              = E(kin-el) + E(nuc-el) + E(el-el) + E(nuc-nuc)
    E(ZPE)  - the the zero temperature vibrational energy from the frequency calculation
    E(vib)  - the the finite temperature correction to E(ZPE) due to population
              of excited vibrational states
    E(rot)  - is the rotational thermal energy
    E(trans)- is the translational thermal energy

Summary of contributions to the inner energy U:
Electronic energy                ...  -1853.28403142 Eh
Zero point energy                ...      0.09281605 Eh      58.24 kcal/mol
Thermal vibrational correction   ...      0.01964823 Eh      12.33 kcal/mol
Thermal rotational correction    ...      0.00141627 Eh       0.89 kcal/mol
Thermal translational correction ...      0.00141627 Eh       0.89 kcal/mol
-----------------------------------------------------------------------
Total thermal energy                  -1853.16873460 Eh

Summary of corrections to the electronic energy:
(perhaps to be used in another calculation)
Total thermal correction                  0.02248077 Eh      14.11 kcal/mol
Non-thermal (ZPE) correction              0.09281605 Eh      58.24 kcal/mol
-----------------------------------------------------------------------
Total correction                          0.11529682 Eh      72.35 kcal/mol

--------
ENTHALPY
--------

The enthalpy is H = U + kB*T
                kB is Boltzmann's constant
Total thermal energy              ...  -1853.16873460 Eh
Thermal Enthalpy correction       ...      0.00094421 Eh       0.59 kcal/mol
-----------------------------------------------------------------------
Total Enthalpy                    ...  -1853.16779039 Eh

Note: Only C1 symmetry has been detected, increase convergence thresholds
      if your molecule has a higher symmetry. Symmetry factor of 1.0 is
      used for the rotational entropy correction.

Note: Rotational entropy computed according to Herzberg
Infrared and Raman Spectra, Chapter V,1, Van Nostrand Reinhold, 1945
Point Group:  C1, Symmetry Number:   1
Rotational constants in cm-1:     0.020763     0.004182     0.004060

Vibrational entropy computed according to the QRRHO of S. Grimme
Chem.Eur.J. 2012 18 9955 using a reference frequency of 100.0 cm-1

-------
ENTROPY
-------

The entropy contributions are T*S = T*(S(el)+S(vib)+S(rot)+S(trans))
     S(el)   - electronic entropy
     S(vib)  - vibrational entropy
     S(rot)  - rotational entropy
     S(trans)- translational entropy
The entropies will be listed as multiplied by the temperature to get
units of energy

Electronic entropy                ...      0.00065446 Eh      0.41 kcal/mol
Vibrational entropy               ...      0.03538756 Eh     22.21 kcal/mol
Rotational entropy                ...      0.01652514 Eh     10.37 kcal/mol
Translational entropy             ...      0.02081341 Eh     13.06 kcal/mol
-----------------------------------------------------------------------

                             ****ORCA TERMINATED NORMALLY****
TOTAL RUN TIME: 0 days 0 hours 20 minutes 11 seconds 873 msec
