                         Program Version 6.0.1  -  RELEASE   -
|  1> !r2scanh def2-TZVP freq d3 TightSCF SlowConv defgrid2
|  2>
|  3> %pal
|  4> nprocs 20
|  5> end
|  6>
|  7> %scf
|  8> MaxIter 1500
|  9> end
| 10>
| 11> %maxcore 8000
| 12>
| 13> !CPCM
| 14> %cpcm smd true
| 15> SMDsolvent "ACETONITRILE"
| 16> end
| 17>
| 18> * xyz -1 2
| 19> 6        6.978466000     27.031997000      1.668192000
| 20> 6        6.298155000     25.684688000      2.034653000
| 21> 6        7.302636000     24.531697000      2.313173000
| 22> 6        6.677033000     23.336001000      3.102176000
| 23> 6        7.479308000     22.085211000      2.981174000
| 24> 6        7.068037000     20.770466000      2.392051000
| 25> 6        7.131160000     20.702561000      0.848526000
| 26> 6        6.765980000     19.293617000      0.272515000
| 27> 9        7.910819000     26.846397000      0.739494000
| 28> 9        7.534908000     27.584357000      2.737847000
| 29> 9        6.058691000     27.862569000      1.191753000
| 30> 9        5.537065000     25.898089000      3.119297000
| 31> 9        5.509580000     25.330819000      1.011161000
| 32> 9        7.757289000     24.077798000      1.133639000
| 33> 9        8.343560000     25.010828000      3.013966000
| 34> 9        6.601855000     23.717574000      4.401709000
| 35> 9        5.426594000     23.129533000      2.653352000
| 36> 9        8.772984000     22.236201000      3.205242000
| 37> 9        7.904973000     19.825313000      2.880479000
| 38> 9        5.811177000     20.469290000      2.780610000
| 39> 9        6.295673000     21.658411000      0.372596000
| 40> 9        8.392509000     21.070895000      0.498876000
| 41> 8        7.718626000     18.510073000      0.155702000
| 42> 8        5.564228000     19.130586000      0.019235000
| 43> 8        3.318435000     20.701360000      0.430690000
| 44> 1        2.718930000     20.026755000      0.762218000
| 45> 1        4.159739000     20.224051000      0.291776000
| 46> 1        9.394400000     18.696085000      0.747611000
| 47> 8       10.321444000     18.716139000      1.058248000
| 48> 1       10.395154000     19.558770000      1.514713000
| 49> *
| 50>
| 51>                          ****END OF INPUT****

CARTESIAN COORDINATES (ANGSTROEM)
---------------------------------
  C      6.978466   27.031997    1.668192
  C      6.298155   25.684688    2.034653
  C      7.302636   24.531697    2.313173
  C      6.677033   23.336001    3.102176
  C      7.479308   22.085211    2.981174
  C      7.068037   20.770466    2.392051
  C      7.131160   20.702561    0.848526
  C      6.765980   19.293617    0.272515
  F      7.910819   26.846397    0.739494
  F      7.534908   27.584357    2.737847
  F      6.058691   27.862569    1.191753
  F      5.537065   25.898089    3.119297
  F      5.509580   25.330819    1.011161
  F      7.757289   24.077798    1.133639
  F      8.343560   25.010828    3.013966
  F      6.601855   23.717574    4.401709
  F      5.426594   23.129533    2.653352
  F      8.772984   22.236201    3.205242
  F      7.904973   19.825313    2.880479
  F      5.811177   20.469290    2.780610
  F      6.295673   21.658411    0.372596
  F      8.392509   21.070895    0.498876
  O      7.718626   18.510073    0.155702
  O      5.564228   19.130586    0.019235
  O      3.318435   20.701360    0.430690
  H      2.718930   20.026755    0.762218
  H      4.159739   20.224051    0.291776
  H      9.394400   18.696085    0.747611
  O     10.321444   18.716139    1.058248
  H     10.395154   19.558770    1.514713

 Total Charge           Charge          ....   -1
 Multiplicity           Mult            ....    2
 Number of Electrons    NEL             ....  211
 Basis Dimension        Dim             ....  830

ORBITAL ENERGIES
----------------
                 SPIN UP ORBITALS
  NO   OCC          E(Eh)            E(eV)
   0   1.0000     -24.737830      -673.1506
   1   1.0000     -24.731622      -672.9816
   2   1.0000     -24.730413      -672.9488
   3   1.0000     -24.730099      -672.9402
   4   1.0000     -24.729882      -672.9343
   5   1.0000     -24.729708      -672.9296
   6   1.0000     -24.729164      -672.9148
   7   1.0000     -24.728917      -672.9080
   8   1.0000     -24.725107      -672.8044
   9   1.0000     -24.717097      -672.5864
  10   1.0000     -24.709265      -672.3733
  11   1.0000     -24.709139      -672.3699
  12   1.0000     -24.695163      -671.9895
  13   1.0000     -24.694643      -671.9754
  14   1.0000     -19.075380      -519.0675
  15   1.0000     -19.074817      -519.0522
  16   1.0000     -19.071872      -518.9720
  17   1.0000     -19.071490      -518.9616
  18   1.0000     -10.439057      -284.0612
  19   1.0000     -10.383759      -282.5565
  20   1.0000     -10.382529      -282.5230
  21   1.0000     -10.381497      -282.4949
  22   1.0000     -10.364012      -282.0191
  23   1.0000     -10.331851      -281.1440
  24   1.0000     -10.301377      -280.3147
  25   1.0000     -10.254788      -279.0470
  26   1.0000      -1.360702       -37.0266
  27   1.0000      -1.331614       -36.2351
  28   1.0000      -1.314642       -35.7732
  29   1.0000      -1.309352       -35.6293
  30   1.0000      -1.303433       -35.4682
  31   1.0000      -1.291115       -35.1330
  32   1.0000      -1.277753       -34.7694
  33   1.0000      -1.271644       -34.6032
  34   1.0000      -1.266038       -34.4507
  35   1.0000      -1.262563       -34.3561
  36   1.0000      -1.255286       -34.1581
  37   1.0000      -1.248124       -33.9632
  38   1.0000      -1.239347       -33.7244
  39   1.0000      -1.219966       -33.1970
  40   1.0000      -1.052174       -28.6311
  41   1.0000      -0.978678       -26.6312
  42   1.0000      -0.975470       -26.5439
  43   1.0000      -0.963658       -26.2225
  44   1.0000      -0.851337       -23.1661
  45   1.0000      -0.828827       -22.5535
  46   1.0000      -0.790957       -21.5230
  47   1.0000      -0.753047       -20.4915
  48   1.0000      -0.712338       -19.3837
  49   1.0000      -0.682782       -18.5794
  50   1.0000      -0.656452       -17.8630
  51   1.0000      -0.636992       -17.3334
  52   1.0000      -0.634796       -17.2737
  53   1.0000      -0.627315       -17.0701
  54   1.0000      -0.613487       -16.6938
  55   1.0000      -0.610217       -16.6048
  56   1.0000      -0.609007       -16.5719
  57   1.0000      -0.600291       -16.3348
  58   1.0000      -0.592687       -16.1278
  59   1.0000      -0.589152       -16.0316
  60   1.0000      -0.582555       -15.8521
  61   1.0000      -0.571687       -15.5564
  62   1.0000      -0.569591       -15.4994
  63   1.0000      -0.560596       -15.2546
  64   1.0000      -0.544808       -14.8250
  65   1.0000      -0.517677       -14.0867
  66   1.0000      -0.504111       -13.7176
  67   1.0000      -0.501186       -13.6380
  68   1.0000      -0.495569       -13.4851
  69   1.0000      -0.489597       -13.3226
  70   1.0000      -0.486650       -13.2424
  71   1.0000      -0.485067       -13.1993
  72   1.0000      -0.482962       -13.1421
  73   1.0000      -0.474560       -12.9134
  74   1.0000      -0.468096       -12.7375
  75   1.0000      -0.467281       -12.7154
  76   1.0000      -0.463732       -12.6188
  77   1.0000      -0.460147       -12.5212
  78   1.0000      -0.456607       -12.4249
  79   1.0000      -0.449828       -12.2404
  80   1.0000      -0.448443       -12.2028
  81   1.0000      -0.446512       -12.1502
  82   1.0000      -0.444375       -12.0921
  83   1.0000      -0.437609       -11.9079
  84   1.0000      -0.435483       -11.8501
  85   1.0000      -0.432730       -11.7752
  86   1.0000      -0.428342       -11.6558
  87   1.0000      -0.427107       -11.6222
  88   1.0000      -0.425181       -11.5698
  89   1.0000      -0.423541       -11.5251
  90   1.0000      -0.420313       -11.4373
  91   1.0000      -0.411997       -11.2110
  92   1.0000      -0.409255       -11.1364
  93   1.0000      -0.403669       -10.9844
  94   1.0000      -0.395743       -10.7687
  95   1.0000      -0.391712       -10.6590
  96   1.0000      -0.362964        -9.8767
  97   1.0000      -0.348506        -9.4833
  98   1.0000      -0.345428        -9.3996
  99   1.0000      -0.338417        -9.2088
 100   1.0000      -0.273875        -7.4525
 101   1.0000      -0.271305        -7.3826
 102   1.0000      -0.267428        -7.2771
 103   1.0000      -0.260878        -7.0989
 104   1.0000      -0.247259        -6.7282
 105   1.0000      -0.240203        -6.5363
 106   0.0000      -0.009924        -0.2700
 107   0.0000       0.006656         0.1811
 108   0.0000       0.017254         0.4695
 109   0.0000       0.038994         1.0611
 110   0.0000       0.072684         1.9778

                 SPIN DOWN ORBITALS
  NO   OCC          E(Eh)            E(eV)
   0   1.0000     -24.732830      -673.0145
   1   1.0000     -24.731625      -672.9817
   2   1.0000     -24.730410      -672.9487
   3   1.0000     -24.730102      -672.9403
   4   1.0000     -24.729855      -672.9336
   5   1.0000     -24.729579      -672.9261
   6   1.0000     -24.729119      -672.9135
   7   1.0000     -24.728908      -672.9078
   8   1.0000     -24.725003      -672.8015
   9   1.0000     -24.715653      -672.5471
  10   1.0000     -24.708760      -672.3595
  11   1.0000     -24.708714      -672.3583
  12   1.0000     -24.695163      -671.9895
  13   1.0000     -24.694629      -671.9750
  14   1.0000     -19.075379      -519.0675
  15   1.0000     -19.074816      -519.0521
  16   1.0000     -19.071670      -518.9665
  17   1.0000     -19.071274      -518.9557
  18   1.0000     -10.439020      -284.0602
  19   1.0000     -10.383685      -282.5544
  20   1.0000     -10.382493      -282.5220
  21   1.0000     -10.381929      -282.5066
  22   1.0000     -10.365105      -282.0488
  23   1.0000     -10.330964      -281.1198
  24   1.0000     -10.284523      -279.8561
  25   1.0000     -10.254691      -279.0443
  26   1.0000      -1.360666       -37.0256
  27   1.0000      -1.331042       -36.2195
  28   1.0000      -1.314083       -35.7580
  29   1.0000      -1.307833       -35.5880
  30   1.0000      -1.301723       -35.4217
  31   1.0000      -1.284233       -34.9458
  32   1.0000      -1.277344       -34.7583
  33   1.0000      -1.271593       -34.6018
  34   1.0000      -1.266008       -34.4498
  35   1.0000      -1.262325       -34.3496
  36   1.0000      -1.255139       -34.1541
  37   1.0000      -1.246399       -33.9162
  38   1.0000      -1.238287       -33.6955
  39   1.0000      -1.219856       -33.1940
  40   1.0000      -1.051830       -28.6217
  41   1.0000      -0.978596       -26.6290
  42   1.0000      -0.975466       -26.5438
  43   1.0000      -0.963322       -26.2133
  44   1.0000      -0.841978       -22.9114
  45   1.0000      -0.819019       -22.2866
  46   1.0000      -0.789493       -21.4832
  47   1.0000      -0.745518       -20.2866
  48   1.0000      -0.708511       -19.2796
  49   1.0000      -0.681975       -18.5575
  50   1.0000      -0.651810       -17.7367
  51   1.0000      -0.635195       -17.2845
  52   1.0000      -0.633798       -17.2465
  53   1.0000      -0.627146       -17.0655
  54   1.0000      -0.612335       -16.6625
  55   1.0000      -0.608989       -16.5714
  56   1.0000      -0.602688       -16.4000
  57   1.0000      -0.599273       -16.3071
  58   1.0000      -0.591575       -16.0976
  59   1.0000      -0.587177       -15.9779
  60   1.0000      -0.581645       -15.8274
  61   1.0000      -0.570217       -15.5164
  62   1.0000      -0.568060       -15.4577
  63   1.0000      -0.558662       -15.2020
  64   1.0000      -0.544162       -14.8074
  65   1.0000      -0.504653       -13.7323
  66   1.0000      -0.500947       -13.6315
  67   1.0000      -0.498006       -13.5514
  68   1.0000      -0.491347       -13.3702
  69   1.0000      -0.486630       -13.2419
  70   1.0000      -0.486149       -13.2288
  71   1.0000      -0.483245       -13.1498
  72   1.0000      -0.480140       -13.0653
  73   1.0000      -0.472879       -12.8677
  74   1.0000      -0.466840       -12.7034
  75   1.0000      -0.465941       -12.6789
  76   1.0000      -0.462942       -12.5973
  77   1.0000      -0.459719       -12.5096
  78   1.0000      -0.456155       -12.4126
  79   1.0000      -0.448753       -12.2112
  80   1.0000      -0.447888       -12.1877
  81   1.0000      -0.444017       -12.0823
  82   1.0000      -0.441143       -12.0041
  83   1.0000      -0.437183       -11.8963
  84   1.0000      -0.435130       -11.8405
  85   1.0000      -0.432348       -11.7648
  86   1.0000      -0.427614       -11.6360
  87   1.0000      -0.426519       -11.6062
  88   1.0000      -0.424709       -11.5569
  89   1.0000      -0.422569       -11.4987
  90   1.0000      -0.419571       -11.4171
  91   1.0000      -0.411524       -11.1981
  92   1.0000      -0.407971       -11.1015
  93   1.0000      -0.403316       -10.9748
  94   1.0000      -0.394884       -10.7453
  95   1.0000      -0.389596       -10.6014
  96   1.0000      -0.359298        -9.7770
  97   1.0000      -0.348400        -9.4804
  98   1.0000      -0.344583        -9.3766
  99   1.0000      -0.336061        -9.1447
 100   1.0000      -0.273732        -7.4486
 101   1.0000      -0.271283        -7.3820
 102   1.0000      -0.260520        -7.0891
 103   1.0000      -0.246927        -6.7192
 104   1.0000      -0.246511        -6.7079
 105   0.0000      -0.118879        -3.2349
 106   0.0000      -0.007405        -0.2015
 107   0.0000       0.009290         0.2528
 108   0.0000       0.021408         0.5825
 109   0.0000       0.043369         1.1801

MULLIKEN ATOMIC CHARGES AND SPIN POPULATIONS
--------------------------------------------
   0 C :    0.472187    0.001381
   1 C :    0.329149    0.002754
   2 C :    0.299100    0.014329
   3 C :    0.384687   -0.009037
   4 C :    0.068205    0.847644
   5 C :    0.372404   -0.036231
   6 C :    0.299577    0.031777
   7 C :    0.352094    0.002621
   8 F :   -0.156498   -0.000063
   9 F :   -0.154898    0.000032
  10 F :   -0.153847    0.000467
  11 F :   -0.163535   -0.000042
  12 F :   -0.160552    0.000212
  13 F :   -0.168877    0.000682
  14 F :   -0.166796    0.002146
  15 F :   -0.174658    0.024137
  16 F :   -0.173246    0.001195
  17 F :   -0.153709    0.087471
  18 F :   -0.185800    0.007286
  19 F :   -0.182946    0.007354
  20 F :   -0.209583    0.000601
  21 F :   -0.213205    0.000573
  22 O :   -0.530888    0.006112
  23 O :   -0.534407    0.006570
  24 O :   -0.742039    0.000013
  25 H :    0.337383   -0.000003
  26 H :    0.356272    0.000003
  27 H :    0.356107   -0.000050
  28 O :   -0.737323    0.000015
  29 H :    0.335643    0.000053
Sum of atomic charges         :   -1.0000000

LOEWDIN ATOMIC CHARGES AND SPIN POPULATIONS
-------------------------------------------
   0 C :   -0.678817    0.001085
   1 C :   -0.479486    0.003575
   2 C :   -0.466901    0.016884
   3 C :   -0.491350    0.063353
   4 C :   -0.167108    0.661431
   5 C :   -0.497213    0.054530
   6 C :   -0.454336    0.028640
   7 C :   -0.648153    0.005242
   8 F :    0.230064   -0.000029
   9 F :    0.231762    0.000071
  10 F :    0.231189    0.000518
  11 F :    0.229195   -0.000023
  12 F :    0.230773    0.000262
  13 F :    0.230159    0.001291
  14 F :    0.227756    0.002762
  15 F :    0.202747    0.025354
  16 F :    0.228779    0.002370
  17 F :    0.256097    0.104250
  18 F :    0.207783    0.007253
  19 F :    0.212021    0.008690
  20 F :    0.185856    0.000755
  21 F :    0.177088    0.000438
  22 O :   -0.023879    0.005427
  23 O :   -0.025884    0.005827
  24 O :   -0.364914    0.000020
  25 H :    0.155380   -0.000002
  26 H :    0.138033   -0.000018
  27 H :    0.134727   -0.000024
  28 O :   -0.359996    0.000026
  29 H :    0.148632    0.000044

  Mayer bond orders larger than 0.100000
B(  0-C ,  1-C ) :   0.9494 B(  0-C ,  8-F ) :   1.1285 B(  0-C ,  9-F ) :   1.1413
B(  0-C , 10-F ) :   1.1333 B(  1-C ,  2-C ) :   0.9194 B(  1-C , 11-F ) :   1.0832
B(  1-C , 12-F ) :   1.0979 B(  2-C ,  3-C ) :   0.9136 B(  2-C , 13-F ) :   1.0658
B(  2-C , 14-F ) :   1.0857 B(  3-C ,  4-C ) :   1.0461 B(  3-C , 15-F ) :   1.0693
B(  3-C , 16-F ) :   1.0692 B(  4-C ,  5-C ) :   0.9854 B(  4-C , 17-F ) :   1.0946
B(  5-C ,  6-C ) :   0.9218 B(  5-C , 18-F ) :   1.0560 B(  5-C , 19-F ) :   1.0877
B(  6-C ,  7-C ) :   0.8650 B(  6-C , 20-F ) :   1.0200 B(  6-C , 21-F ) :   1.0078
B(  7-C , 22-O ) :   1.7059 B(  7-C , 23-O ) :   1.7083 B( 22-O , 27-H ) :   0.1088
B( 23-O , 26-H ) :   0.1050 B( 24-O , 25-H ) :   0.8983 B( 24-O , 26-H ) :   0.8177
B( 27-H , 28-O ) :   0.8221 B( 28-O , 29-H ) :   0.8988

Dispersion correction           -0.010302780
FINAL SINGLE POINT ENERGY     -2005.987709048313

DIPOLE MOMENT
-------------

Method             : SCF
Type of density    : Electron Density
Multiplicity       :   2
Irrep              :   0
Energy             : -2005.9774062682240583 Eh
Relativity type    :
Basis              : AO
                                X                 Y                 Z
Electronic contribution:      1.659349071      31.633628238      10.794985925
Nuclear contribution   :     -1.663281106     -25.044079992      -7.754597287
                        -----------------------------------------
Total Dipole Moment    :     -0.003932036       6.589548246       3.040388638
                        -----------------------------------------
Magnitude (a.u.)       :      7.257143007
Magnitude (Debye)      :     18.446191580

VIBRATIONAL FREQUENCIES
-----------------------

Scaling factor for frequencies =  1.000000000  (already applied!)

     0:       0.00 cm**-1
     1:       0.00 cm**-1
     2:       0.00 cm**-1
     3:       0.00 cm**-1
     4:       0.00 cm**-1
     5:       0.00 cm**-1
     6:      15.41 cm**-1
     7:      18.83 cm**-1
     8:      30.09 cm**-1
     9:      35.18 cm**-1
    10:      46.07 cm**-1
    11:      48.19 cm**-1
    12:      57.38 cm**-1
    13:      60.51 cm**-1
    14:      61.65 cm**-1
    15:      68.85 cm**-1
    16:      85.87 cm**-1
    17:      91.44 cm**-1
    18:     109.54 cm**-1
    19:     118.71 cm**-1
    20:     128.01 cm**-1
    21:     152.86 cm**-1
    22:     156.61 cm**-1
    23:     165.38 cm**-1
    24:     181.79 cm**-1
    25:     185.57 cm**-1
    26:     193.29 cm**-1
    27:     206.78 cm**-1
    28:     216.37 cm**-1
    29:     230.03 cm**-1
    30:     238.35 cm**-1
    31:     245.36 cm**-1
    32:     275.61 cm**-1
    33:     282.86 cm**-1
    34:     288.85 cm**-1
    35:     312.79 cm**-1
    36:     337.68 cm**-1
    37:     348.34 cm**-1
    38:     350.71 cm**-1
    39:     362.73 cm**-1
    40:     374.69 cm**-1
    41:     377.80 cm**-1
    42:     396.99 cm**-1
    43:     418.68 cm**-1
    44:     425.05 cm**-1
    45:     445.85 cm**-1
    46:     463.88 cm**-1
    47:     517.02 cm**-1
    48:     535.51 cm**-1
    49:     557.66 cm**-1
    50:     572.92 cm**-1
    51:     583.51 cm**-1
    52:     585.45 cm**-1
    53:     606.57 cm**-1
    54:     627.94 cm**-1
    55:     661.84 cm**-1
    56:     683.31 cm**-1
    57:     695.83 cm**-1
    58:     699.30 cm**-1
    59:     711.81 cm**-1
    60:     734.03 cm**-1
    61:     782.42 cm**-1
    62:     817.29 cm**-1
    63:     892.09 cm**-1
    64:     996.30 cm**-1
    65:    1070.17 cm**-1
    66:    1118.64 cm**-1
    67:    1131.97 cm**-1
    68:    1137.44 cm**-1
    69:    1139.89 cm**-1
    70:    1152.83 cm**-1
    71:    1168.61 cm**-1
    72:    1172.57 cm**-1
    73:    1184.71 cm**-1
    74:    1192.47 cm**-1
    75:    1208.69 cm**-1
    76:    1211.36 cm**-1
    77:    1231.64 cm**-1
    78:    1281.79 cm**-1
    79:    1344.72 cm**-1
    80:    1348.27 cm**-1
    81:    1382.54 cm**-1
    82:    1415.32 cm**-1
    83:    1663.58 cm**-1
    84:    1676.74 cm**-1
    85:    1736.23 cm**-1
    86:    3490.18 cm**-1
    87:    3514.48 cm**-1
    88:    3851.74 cm**-1
    89:    3856.12 cm**-1

IR SPECTRUM
-----------

 Mode   freq       eps      Int      T**2         TX        TY        TZ
       cm**-1   L/(mol*cm) km/mol    a.u.
----------------------------------------------------------------------------
  6:     15.41   0.000596    3.01  0.012070  ( 0.000183  0.092058 -0.059959)
  7:     18.83   0.000037    0.19  0.000617  ( 0.023562  0.006721 -0.004098)
  8:     30.09   0.000269    1.36  0.002785  (-0.049567 -0.008255 -0.016127)
  9:     35.18   0.000250    1.27  0.002221  (-0.027824  0.001288 -0.038015)
 10:     46.07   0.000208    1.05  0.001410  (-0.002555  0.031112  0.020873)
 11:     48.19   0.000229    1.16  0.001482  (-0.026337 -0.025251  0.012271)
 12:     57.38   0.000558    2.82  0.003035  ( 0.051317 -0.007373  0.018645)
 13:     60.51   0.000366    1.85  0.001888  (-0.023878 -0.019538 -0.030602)
 14:     61.65   0.000138    0.70  0.000698  (-0.025097 -0.003654 -0.007430)
 15:     68.85   0.000070    0.35  0.000317  ( 0.014050 -0.009697 -0.005027)
 16:     85.87   0.000202    1.02  0.000735  (-0.016076 -0.007939  0.020324)
 17:     91.44   0.000283    1.43  0.000967  (-0.028086  0.010389 -0.008360)
 18:    109.54   0.000332    1.68  0.000946  (-0.001228 -0.030624  0.002614)
 19:    118.71   0.031795  160.68  0.083579  ( 0.076704  0.063232  0.271472)
 20:    128.01   0.000328    1.66  0.000800  (-0.016923 -0.006219  0.021797)
 21:    152.86   0.000049    0.25  0.000101  ( 0.008935  0.003459 -0.002963)
 22:    156.61   0.001118    5.65  0.002228  ( 0.018476  0.024934 -0.035559)
 23:    165.38   0.026912  136.00  0.050781  (-0.057288 -0.095090  0.196104)
 24:    181.79   0.000561    2.84  0.000963  (-0.028750 -0.011421  0.002491)
 25:    185.57   0.002825   14.28  0.004750  (-0.024814  0.018021  0.061725)
 26:    193.29   0.005558   28.09  0.008973  (-0.091351  0.009627 -0.023132)
 27:    206.78   0.001852    9.36  0.002794  (-0.040954  0.025191  0.021970)
 28:    216.37   0.001311    6.63  0.001891  (-0.037419  0.016934 -0.014290)
 29:    230.03   0.000891    4.50  0.001208  (-0.017985  0.002574 -0.029631)
 30:    238.35   0.000081    0.41  0.000106  (-0.003523  0.004018  0.008780)
 31:    245.36   0.000064    0.32  0.000081  ( 0.008701  0.002242  0.000469)
 32:    275.61   0.003804   19.22  0.004307  ( 0.064339 -0.012792  0.001956)
 33:    282.86   0.002188   11.06  0.002414  (-0.027578  0.040482 -0.003879)
 34:    288.85   0.000361    1.82  0.000390  ( 0.006779 -0.017758  0.005350)
 35:    312.79   0.000066    0.34  0.000066  (-0.006067  0.000157  0.005430)
 36:    337.68   0.000099    0.50  0.000092  (-0.008079 -0.004016 -0.003199)
 37:    348.34   0.000402    2.03  0.000360  (-0.003828 -0.001505 -0.018524)
 38:    350.71   0.000647    3.27  0.000576  (-0.023543  0.002825 -0.003724)
 39:    362.73   0.000259    1.31  0.000223  (-0.004129 -0.001449 -0.014277)
 40:    374.69   0.005537   27.98  0.004611  ( 0.065534  0.016585  0.006424)
 41:    377.80   0.000083    0.42  0.000068  ( 0.004279 -0.007034 -0.000618)
 42:    396.99   0.011277   56.99  0.008865  (-0.078699  0.005670  0.051370)
 43:    418.68   0.006425   32.47  0.004789  ( 0.068427  0.002507 -0.010031)
 44:    425.05   0.004977   25.15  0.003654  ( 0.050659  0.032484  0.005708)
 45:    445.85   0.012885   65.12  0.009019  (-0.071576 -0.033627 -0.052584)
 46:    463.88   0.003194   16.14  0.002149  ( 0.022740  0.040021  0.005462)
 47:    517.02   0.001452    7.34  0.000876  (-0.012195 -0.011229 -0.024522)
 48:    535.51   0.004783   24.17  0.002787  ( 0.031998 -0.041706 -0.004869)
 49:    557.66   0.001798    9.09  0.001006  ( 0.006645 -0.008330  0.029881)
 50:    572.92   0.003535   17.86  0.001925  (-0.012330 -0.031819  0.027584)
 51:    583.51   0.005278   26.67  0.002823  (-0.027857 -0.042437  0.015678)
 52:    585.45   0.006735   34.03  0.003590  (-0.012184  0.048354  0.033216)
 53:    606.57   0.006243   31.55  0.003212  (-0.000408  0.052702  0.020832)
 54:    627.94   0.004729   23.90  0.002350  ( 0.008319  0.046416  0.011253)
 55:    661.84   0.001151    5.82  0.000543  (-0.005115 -0.015682  0.016448)
 56:    683.31   0.022346  112.93  0.010205  ( 0.036561  0.033145 -0.088148)
 57:    695.83   0.022862  115.54  0.010253  (-0.028241  0.078118 -0.057908)
 58:    699.30   0.035449  179.15  0.015819  ( 0.041173  0.086672  0.081314)
 59:    711.81   0.005568   28.14  0.002441  (-0.004650  0.015678 -0.046622)
 60:    734.03   0.019856  100.34  0.008441  (-0.020140  0.065643 -0.061047)
 61:    782.42   0.006565   33.17  0.002618  (-0.016569  0.045982 -0.015142)
 62:    817.29   0.022922  115.84  0.008752  ( 0.037149  0.072097  0.046629)
 63:    892.09   0.011697   59.11  0.004092  (-0.006970  0.040188 -0.049277)
 64:    996.30   0.000155    0.78  0.000048  (-0.001711 -0.005224 -0.004267)
 65:   1070.17   0.045687  230.88  0.013322  (-0.020736  0.089961  0.069278)
 66:   1118.64   0.069524  351.34  0.019395  (-0.087205 -0.043962  0.099285)
 67:   1131.97   0.038088  192.48  0.010500  (-0.072836  0.061782 -0.037123)
 68:   1137.44   0.032069  162.06  0.008798  ( 0.079557 -0.044524  0.022059)
 69:   1139.89   0.010418   52.65  0.002852  (-0.047802 -0.020800  0.011600)
 70:   1152.83   0.064297  324.93  0.017405  ( 0.116664  0.056762 -0.023926)
 71:   1168.61   0.041098  207.69  0.010975  ( 0.048688 -0.029311 -0.088005)
 72:   1172.57   0.017907   90.49  0.004766  ( 0.042833  0.025835  0.047577)
 73:   1184.71   0.091053  460.15  0.023984  ( 0.062161  0.041821  0.135541)
 74:   1192.47   0.112566  568.86  0.029458  (-0.168238  0.024507  0.023524)
 75:   1208.69   0.074636  377.18  0.019270  (-0.022025 -0.035890 -0.132274)
 76:   1211.36   0.030935  156.33  0.007969  ( 0.070097 -0.002800  0.055207)
 77:   1231.64   0.009037   45.67  0.002290  (-0.027076  0.033607 -0.020669)
 78:   1281.79   0.004201   21.23  0.001023  ( 0.003758  0.025154  0.019390)
 79:   1344.72   0.028312  143.08  0.006570  (-0.039107  0.061322 -0.035784)
 80:   1348.27   0.013178   66.59  0.003050  (-0.028422  0.047070  0.005158)
 81:   1382.54   0.062724  316.98  0.014158  ( 0.038870  0.096760  0.057310)
 82:   1415.32   0.011974   60.51  0.002640  (-0.007668  0.046726  0.019950)
 83:   1663.58   0.023412  118.32  0.004392  (-0.020230  0.062800 -0.006215)
 84:   1676.74   0.039019  197.18  0.007262  (-0.066641  0.052425  0.008510)
 85:   1736.23   0.212409  1073.43  0.038178  (-0.189172  0.046889 -0.013901)
 86:   3490.18   0.325818  1646.55  0.029132  (-0.166489  0.025427 -0.027692)
 87:   3514.48   0.072014  363.93  0.006394  (-0.067634  0.037912  0.019565)
 88:   3851.74   0.018948   95.76  0.001535  ( 0.036315  0.011716 -0.008894)
 89:   3856.12   0.013207   66.74  0.001069  ( 0.019911  0.019541  0.017044)

--------------------------
THERMOCHEMISTRY AT 298.15K
--------------------------

Temperature         ...   298.15 K
Pressure            ...     1.00 atm
Total Mass          ...   430.09 AMU
Quasi RRHO          ...     True
Cut-Off Frequency   ...     1.00 cm^-1

Throughout the following assumptions are being made:
  (1) The electronic state is orbitally nondegenerate
      but the spin degeneracy is treated
  (2) There are no thermally accessible electronically excited states
  (3) Hindered rotations indicated by low frequency modes are not
      treated as such but are treated as vibrations and this may
      cause some error
  (4) All equations used are the standard statistical mechanics
      equations for an ideal gas
  (5) All vibrations are strictly harmonic

freq.      15.41  E(vib)   ...       0.57
freq.      18.83  E(vib)   ...       0.57
freq.      30.09  E(vib)   ...       0.55
freq.      35.18  E(vib)   ...       0.54
freq.      46.07  E(vib)   ...       0.53
freq.      48.19  E(vib)   ...       0.53
freq.      57.38  E(vib)   ...       0.51
freq.      60.51  E(vib)   ...       0.51
freq.      61.65  E(vib)   ...       0.51
freq.      68.85  E(vib)   ...       0.50
freq.      85.87  E(vib)   ...       0.48
freq.      91.44  E(vib)   ...       0.47
freq.     109.54  E(vib)   ...       0.45
freq.     118.71  E(vib)   ...       0.44
freq.     128.01  E(vib)   ...       0.43
freq.     152.86  E(vib)   ...       0.40
freq.     156.61  E(vib)   ...       0.40
freq.     165.38  E(vib)   ...       0.39
freq.     181.79  E(vib)   ...       0.37
freq.     185.57  E(vib)   ...       0.37
freq.     193.29  E(vib)   ...       0.36
freq.     206.78  E(vib)   ...       0.35
freq.     216.37  E(vib)   ...       0.34
freq.     230.03  E(vib)   ...       0.32
freq.     238.35  E(vib)   ...       0.32
freq.     245.36  E(vib)   ...       0.31
freq.     275.61  E(vib)   ...       0.28
freq.     282.86  E(vib)   ...       0.28
freq.     288.85  E(vib)   ...       0.27
freq.     312.79  E(vib)   ...       0.25
freq.     337.68  E(vib)   ...       0.24
freq.     348.34  E(vib)   ...       0.23
freq.     350.71  E(vib)   ...       0.23
freq.     362.73  E(vib)   ...       0.22
freq.     374.69  E(vib)   ...       0.21
freq.     377.80  E(vib)   ...       0.21
freq.     396.99  E(vib)   ...       0.20
freq.     418.68  E(vib)   ...       0.18
freq.     425.05  E(vib)   ...       0.18
freq.     445.85  E(vib)   ...       0.17
freq.     463.88  E(vib)   ...       0.16
freq.     517.02  E(vib)   ...       0.13
freq.     535.51  E(vib)   ...       0.12
freq.     557.66  E(vib)   ...       0.12
freq.     572.92  E(vib)   ...       0.11
freq.     583.51  E(vib)   ...       0.11
freq.     585.45  E(vib)   ...       0.11
freq.     606.57  E(vib)   ...       0.10
freq.     627.94  E(vib)   ...       0.09
freq.     661.84  E(vib)   ...       0.08
freq.     683.31  E(vib)   ...       0.08
freq.     695.83  E(vib)   ...       0.07
freq.     699.30  E(vib)   ...       0.07
freq.     711.81  E(vib)   ...       0.07
freq.     734.03  E(vib)   ...       0.06
freq.     782.42  E(vib)   ...       0.05
freq.     817.29  E(vib)   ...       0.05
freq.     892.09  E(vib)   ...       0.03
freq.     996.30  E(vib)   ...       0.02
freq.    1070.17  E(vib)   ...       0.02
freq.    1118.64  E(vib)   ...       0.01
freq.    1131.97  E(vib)   ...       0.01
freq.    1137.44  E(vib)   ...       0.01
freq.    1139.89  E(vib)   ...       0.01
freq.    1152.83  E(vib)   ...       0.01
freq.    1168.61  E(vib)   ...       0.01
freq.    1172.57  E(vib)   ...       0.01
freq.    1184.71  E(vib)   ...       0.01
freq.    1192.47  E(vib)   ...       0.01
freq.    1208.69  E(vib)   ...       0.01
freq.    1211.36  E(vib)   ...       0.01
freq.    1231.64  E(vib)   ...       0.01
freq.    1281.79  E(vib)   ...       0.01
freq.    1344.72  E(vib)   ...       0.01
freq.    1348.27  E(vib)   ...       0.01
freq.    1382.54  E(vib)   ...       0.01
freq.    1415.32  E(vib)   ...       0.00
freq.    1663.58  E(vib)   ...       0.00
freq.    1676.74  E(vib)   ...       0.00
freq.    1736.23  E(vib)   ...       0.00
freq.    3490.18  E(vib)   ...       0.00
freq.    3514.48  E(vib)   ...       0.00
freq.    3851.74  E(vib)   ...       0.00
freq.    3856.12  E(vib)   ...       0.00

------------
INNER ENERGY
------------

The inner energy is: U= E(el) + E(ZPE) + E(vib) + E(rot) + E(trans)
    E(el)   - is the total energy from the electronic structure calculation
              = E(kin-el) + E(nuc-el) + E(el-el) + E(nuc-nuc)
    E(ZPE)  - the the zero temperature vibrational energy from the frequency calculation
    E(vib)  - the the finite temperature correction to E(ZPE) due to population
              of excited vibrational states
    E(rot)  - is the rotational thermal energy
    E(trans)- is the translational thermal energy

Summary of contributions to the inner energy U:
Electronic energy                ...  -2005.98770905 Eh
Zero point energy                ...      0.14250879 Eh      89.43 kcal/mol
Thermal vibrational correction   ...      0.02622394 Eh      16.46 kcal/mol
Thermal rotational correction    ...      0.00141627 Eh       0.89 kcal/mol
Thermal translational correction ...      0.00141627 Eh       0.89 kcal/mol
-----------------------------------------------------------------------
Total thermal energy                  -2005.81614378 Eh

Summary of corrections to the electronic energy:
(perhaps to be used in another calculation)
Total thermal correction                  0.02905648 Eh      18.23 kcal/mol
Non-thermal (ZPE) correction              0.14250879 Eh      89.43 kcal/mol
-----------------------------------------------------------------------
Total correction                          0.17156527 Eh     107.66 kcal/mol

--------
ENTHALPY
--------

The enthalpy is H = U + kB*T
                kB is Boltzmann's constant
Total thermal energy              ...  -2005.81614378 Eh
Thermal Enthalpy correction       ...      0.00094421 Eh       0.59 kcal/mol
-----------------------------------------------------------------------
Total Enthalpy                    ...  -2005.81519957 Eh

Note: Only C1 symmetry has been detected, increase convergence thresholds
      if your molecule has a higher symmetry. Symmetry factor of 1.0 is
      used for the rotational entropy correction.

Note: Rotational entropy computed according to Herzberg
Infrared and Raman Spectra, Chapter V,1, Van Nostrand Reinhold, 1945
Point Group:  C1, Symmetry Number:   1
Rotational constants in cm-1:     0.011894     0.004064     0.003769

Vibrational entropy computed according to the QRRHO of S. Grimme
Chem.Eur.J. 2012 18 9955 using a reference frequency of 100.0 cm-1

                             ****ORCA TERMINATED NORMALLY****
TOTAL RUN TIME: 0 days 0 hours 27 minutes 53 seconds 774 msec
