                         Program Version 6.0.1  -  RELEASE   -
|  1> !r2scanh def2-TZVP freq d3 TightSCF SlowConv defgrid2
|  2>
|  3> %pal
|  4> nprocs 20
|  5> end
|  6>
|  7> %scf
|  8> MaxIter 1500
|  9> end
| 10>
| 11> %maxcore 8000
| 12>
| 13> !CPCM
| 14> %cpcm smd true
| 15> SMDsolvent "ACETONITRILE"
| 16> end
| 17>
| 18> * xyz -2 2
| 19> 6        7.313427000     27.768920000      2.850998000
| 20> 6        6.810116000     26.325526000      3.038166000
| 21> 6        7.247644000     25.173428000      2.097130000
| 22> 6        6.787514000     23.682303000      2.188473000
| 23> 6        7.209078000     22.507122000      1.256274000
| 24> 6        6.754687000     21.035010000      1.457811000
| 25> 6        7.056455000     19.958228000      0.382642000
| 26> 6        6.732321000     18.510306000      0.835337000
| 27> 9        6.951023000     28.246732000      1.659323000
| 28> 9        8.643008000     27.824789000      2.945878000
| 29> 9        6.815424000     28.613611000      3.782245000
| 30> 9        7.177325000     25.978463000      4.305839000
| 31> 9        5.449631000     26.409243000      2.976918000
| 32> 9        6.879697000     25.589996000      0.834116000
| 33> 9        8.621618000     25.143530000      2.186110000
| 34> 9        7.159304000     23.279035000      3.459063000
| 35> 9        5.411463000     23.734948000      2.108998000
| 36> 9        6.799968000     22.865094000     -0.003470000
| 37> 9        8.580765000     22.482940000      1.285359000
| 38> 9        7.311291000     20.607873000      2.624088000
| 39> 9        5.400524000     21.045347000      1.618172000
| 40> 9        6.345025000     20.282593000     -0.731698000
| 41> 9        8.377437000     20.070456000      0.050216000
| 42> 8        7.654413000     17.902431000      1.411054000
| 43> 8        5.569882000     18.124242000      0.610143000
| 44> 8        3.415917000     19.134863000     -0.741994000
| 45> 1        2.752381000     18.547126000     -0.370523000
| 46> 1        4.245075000     18.871872000     -0.289835000
| 47> 1        9.177143000     18.574134000      1.975484000
| 48> 8       10.029318000     18.889408000      2.346689000
| 49> 1       10.025342000     19.831271000      2.155213000
| 50> *
| 51>
| 52>                          ****END OF INPUT****

CARTESIAN COORDINATES (ANGSTROEM)
---------------------------------
  C      7.313427   27.768920    2.850998
  C      6.810116   26.325526    3.038166
  C      7.247644   25.173428    2.097130
  C      6.787514   23.682303    2.188473
  C      7.209078   22.507122    1.256274
  C      6.754687   21.035010    1.457811
  C      7.056455   19.958228    0.382642
  C      6.732321   18.510306    0.835337
  F      6.951023   28.246732    1.659323
  F      8.643008   27.824789    2.945878
  F      6.815424   28.613611    3.782245
  F      7.177325   25.978463    4.305839
  F      5.449631   26.409243    2.976918
  F      6.879697   25.589996    0.834116
  F      8.621618   25.143530    2.186110
  F      7.159304   23.279035    3.459063
  F      5.411463   23.734948    2.108998
  F      6.799968   22.865094   -0.003470
  F      8.580765   22.482940    1.285359
  F      7.311291   20.607873    2.624088
  F      5.400524   21.045347    1.618172
  F      6.345025   20.282593   -0.731698
  F      8.377437   20.070456    0.050216
  O      7.654413   17.902431    1.411054
  O      5.569882   18.124242    0.610143
  O      3.415917   19.134863   -0.741994
  H      2.752381   18.547126   -0.370523
  H      4.245075   18.871872   -0.289835
  H      9.177143   18.574134    1.975484
  O     10.029318   18.889408    2.346689
  H     10.025342   19.831271    2.155213

 Total Charge           Charge          ....   -2
 Multiplicity           Mult            ....    2
 Number of Electrons    NEL             ....  221
 Basis Dimension        Dim             ....  861

ORBITAL ENERGIES
----------------
                 SPIN UP ORBITALS
  NO   OCC          E(Eh)            E(eV)
   0   1.0000     -24.710017      -672.3938
   1   1.0000     -24.709934      -672.3915
   2   1.0000     -24.703263      -672.2100
   3   1.0000     -24.693527      -671.9450
   4   1.0000     -24.693479      -671.9437
   5   1.0000     -24.685233      -671.7194
   6   1.0000     -24.683550      -671.6735
   7   1.0000     -24.679528      -671.5641
   8   1.0000     -24.679463      -671.5623
   9   1.0000     -24.678735      -671.5425
  10   1.0000     -24.678695      -671.5414
  11   1.0000     -24.675065      -671.4426
  12   1.0000     -24.674927      -671.4389
  13   1.0000     -24.673578      -671.4022
  14   1.0000     -24.672887      -671.3834
  15   1.0000     -19.068596      -518.8829
  16   1.0000     -19.067577      -518.8552
  17   1.0000     -19.057165      -518.5718
  18   1.0000     -19.057092      -518.5698
  19   1.0000     -10.409632      -283.2605
  20   1.0000     -10.339414      -281.3498
  21   1.0000     -10.327843      -281.0349
  22   1.0000     -10.323625      -280.9201
  23   1.0000     -10.323054      -280.9046
  24   1.0000     -10.317019      -280.7404
  25   1.0000     -10.312199      -280.6092
  26   1.0000     -10.238344      -278.5995
  27   1.0000      -1.331854       -36.2416
  28   1.0000      -1.280952       -34.8565
  29   1.0000      -1.277761       -34.7696
  30   1.0000      -1.262714       -34.3602
  31   1.0000      -1.254862       -34.1465
  32   1.0000      -1.252966       -34.0949
  33   1.0000      -1.245754       -33.8987
  34   1.0000      -1.242911       -33.8213
  35   1.0000      -1.235447       -33.6182
  36   1.0000      -1.221906       -33.2498
  37   1.0000      -1.217080       -33.1184
  38   1.0000      -1.207695       -32.8631
  39   1.0000      -1.202122       -32.7114
  40   1.0000      -1.198929       -32.6245
  41   1.0000      -1.194775       -32.5115
  42   1.0000      -1.035777       -28.1849
  43   1.0000      -0.970610       -26.4116
  44   1.0000      -0.967981       -26.3401
  45   1.0000      -0.946909       -25.7667
  46   1.0000      -0.794726       -21.6256
  47   1.0000      -0.783157       -21.3108
  48   1.0000      -0.756540       -20.5865
  49   1.0000      -0.724648       -19.7187
  50   1.0000      -0.685492       -18.6532
  51   1.0000      -0.653326       -17.7779
  52   1.0000      -0.626817       -17.0565
  53   1.0000      -0.599779       -16.3208
  54   1.0000      -0.598710       -16.2917
  55   1.0000      -0.597359       -16.2550
  56   1.0000      -0.582563       -15.8523
  57   1.0000      -0.575011       -15.6468
  58   1.0000      -0.570838       -15.5333
  59   1.0000      -0.563527       -15.3344
  60   1.0000      -0.560997       -15.2655
  61   1.0000      -0.548661       -14.9298
  62   1.0000      -0.548026       -14.9125
  63   1.0000      -0.543491       -14.7892
  64   1.0000      -0.534607       -14.5474
  65   1.0000      -0.529103       -14.3976
  66   1.0000      -0.523421       -14.2430
  67   1.0000      -0.514130       -13.9902
  68   1.0000      -0.495187       -13.4747
  69   1.0000      -0.478883       -13.0311
  70   1.0000      -0.468242       -12.7415
  71   1.0000      -0.467603       -12.7241
  72   1.0000      -0.462654       -12.5895
  73   1.0000      -0.448042       -12.1918
  74   1.0000      -0.445227       -12.1152
  75   1.0000      -0.443710       -12.0740
  76   1.0000      -0.442404       -12.0384
  77   1.0000      -0.438529       -11.9330
  78   1.0000      -0.435617       -11.8537
  79   1.0000      -0.433798       -11.8042
  80   1.0000      -0.430892       -11.7252
  81   1.0000      -0.429868       -11.6973
  82   1.0000      -0.426138       -11.5958
  83   1.0000      -0.421055       -11.4575
  84   1.0000      -0.418828       -11.3969
  85   1.0000      -0.411188       -11.1890
  86   1.0000      -0.408705       -11.1214
  87   1.0000      -0.406998       -11.0750
  88   1.0000      -0.406457       -11.0603
  89   1.0000      -0.402999       -10.9662
  90   1.0000      -0.397170       -10.8075
  91   1.0000      -0.396117       -10.7789
  92   1.0000      -0.391745       -10.6599
  93   1.0000      -0.390188       -10.6176
  94   1.0000      -0.389204       -10.5908
  95   1.0000      -0.384995       -10.4763
  96   1.0000      -0.383969       -10.4483
  97   1.0000      -0.379284       -10.3209
  98   1.0000      -0.376356       -10.2412
  99   1.0000      -0.368287       -10.0216
 100   1.0000      -0.357866        -9.7380
 101   1.0000      -0.341539        -9.2937
 102   1.0000      -0.339124        -9.2280
 103   1.0000      -0.331734        -9.0269
 104   1.0000      -0.300778        -8.1846
 105   1.0000      -0.267428        -7.2771
 106   1.0000      -0.264910        -7.2086
 107   1.0000      -0.248458        -6.7609
 108   1.0000      -0.235142        -6.3985
 109   1.0000      -0.232477        -6.3260
 110   1.0000      -0.066130        -1.7995
 111   0.0000       0.008913         0.2425
 112   0.0000       0.039103         1.0641
 113   0.0000       0.056489         1.5372
 114   0.0000       0.065928         1.7940
 115   0.0000       0.082889         2.2555

                 SPIN DOWN ORBITALS
  NO   OCC          E(Eh)            E(eV)
   0   1.0000     -24.709994      -672.3931
   1   1.0000     -24.709910      -672.3908
   2   1.0000     -24.702097      -672.1782
   3   1.0000     -24.693157      -671.9350
   4   1.0000     -24.693103      -671.9335
   5   1.0000     -24.685066      -671.7148
   6   1.0000     -24.683311      -671.6670
   7   1.0000     -24.679081      -671.5519
   8   1.0000     -24.678829      -671.5451
   9   1.0000     -24.678278      -671.5301
  10   1.0000     -24.678020      -671.5231
  11   1.0000     -24.674945      -671.4394
  12   1.0000     -24.674743      -671.4339
  13   1.0000     -24.672904      -671.3838
  14   1.0000     -24.672157      -671.3635
  15   1.0000     -19.068599      -518.8829
  16   1.0000     -19.067581      -518.8552
  17   1.0000     -19.056675      -518.5585
  18   1.0000     -19.056617      -518.5569
  19   1.0000     -10.408304      -283.2244
  20   1.0000     -10.337376      -281.2943
  21   1.0000     -10.326337      -280.9939
  22   1.0000     -10.320435      -280.8333
  23   1.0000     -10.320394      -280.8322
  24   1.0000     -10.313530      -280.6454
  25   1.0000     -10.311446      -280.5887
  26   1.0000     -10.237842      -278.5858
  27   1.0000      -1.330883       -36.2152
  28   1.0000      -1.279419       -34.8148
  29   1.0000      -1.276538       -34.7364
  30   1.0000      -1.261131       -34.3171
  31   1.0000      -1.254226       -34.1292
  32   1.0000      -1.251596       -34.0577
  33   1.0000      -1.245647       -33.8958
  34   1.0000      -1.241128       -33.7728
  35   1.0000      -1.233681       -33.5702
  36   1.0000      -1.221139       -33.2289
  37   1.0000      -1.216488       -33.1023
  38   1.0000      -1.206715       -32.8364
  39   1.0000      -1.201180       -32.6858
  40   1.0000      -1.198588       -32.6152
  41   1.0000      -1.193578       -32.4789
  42   1.0000      -1.034848       -28.1596
  43   1.0000      -0.970553       -26.4101
  44   1.0000      -0.967975       -26.3399
  45   1.0000      -0.946148       -25.7460
  46   1.0000      -0.784653       -21.3515
  47   1.0000      -0.774723       -21.0813
  48   1.0000      -0.746920       -20.3247
  49   1.0000      -0.717455       -19.5229
  50   1.0000      -0.680946       -18.5295
  51   1.0000      -0.650501       -17.7010
  52   1.0000      -0.623981       -16.9794
  53   1.0000      -0.599044       -16.3008
  54   1.0000      -0.596110       -16.2210
  55   1.0000      -0.593409       -16.1475
  56   1.0000      -0.579491       -15.7688
  57   1.0000      -0.570356       -15.5202
  58   1.0000      -0.569241       -15.4898
  59   1.0000      -0.562404       -15.3038
  60   1.0000      -0.556615       -15.1463
  61   1.0000      -0.547510       -14.8985
  62   1.0000      -0.543774       -14.7968
  63   1.0000      -0.540829       -14.7167
  64   1.0000      -0.533673       -14.5220
  65   1.0000      -0.523943       -14.2572
  66   1.0000      -0.521164       -14.1816
  67   1.0000      -0.513251       -13.9663
  68   1.0000      -0.494954       -13.4684
  69   1.0000      -0.478854       -13.0303
  70   1.0000      -0.467251       -12.7145
  71   1.0000      -0.466440       -12.6925
  72   1.0000      -0.462155       -12.5759
  73   1.0000      -0.447398       -12.1743
  74   1.0000      -0.444479       -12.0949
  75   1.0000      -0.443323       -12.0634
  76   1.0000      -0.441781       -12.0215
  77   1.0000      -0.437812       -11.9135
  78   1.0000      -0.434961       -11.8359
  79   1.0000      -0.432897       -11.7797
  80   1.0000      -0.430006       -11.7011
  81   1.0000      -0.428932       -11.6718
  82   1.0000      -0.425573       -11.5804
  83   1.0000      -0.420121       -11.4321
  84   1.0000      -0.417801       -11.3689
  85   1.0000      -0.410287       -11.1645
  86   1.0000      -0.407709       -11.0943
  87   1.0000      -0.406476       -11.0608
  88   1.0000      -0.405566       -11.0360
  89   1.0000      -0.401930       -10.9371
  90   1.0000      -0.396565       -10.7911
  91   1.0000      -0.394764       -10.7421
  92   1.0000      -0.391292       -10.6476
  93   1.0000      -0.388514       -10.5720
  94   1.0000      -0.384385       -10.4597
  95   1.0000      -0.383892       -10.4462
  96   1.0000      -0.381489       -10.3808
  97   1.0000      -0.376638       -10.2488
  98   1.0000      -0.371199       -10.1008
  99   1.0000      -0.361015        -9.8237
 100   1.0000      -0.352488        -9.5917
 101   1.0000      -0.341102        -9.2819
 102   1.0000      -0.338296        -9.2055
 103   1.0000      -0.328105        -8.9282
 104   1.0000      -0.298275        -8.1165
 105   1.0000      -0.267214        -7.2713
 106   1.0000      -0.264887        -7.2079
 107   1.0000      -0.246378        -6.7043
 108   1.0000      -0.233757        -6.3609
 109   1.0000      -0.231936        -6.3113
 110   0.0000      -0.013651        -0.3715
 111   0.0000       0.023984         0.6526
 112   0.0000       0.044753         1.2178
 113   0.0000       0.061155         1.6641
 114   0.0000       0.079810         2.1717

MULLIKEN ATOMIC CHARGES AND SPIN POPULATIONS
--------------------------------------------
   0 C :    0.446861    0.060448
   1 C :    0.296228    0.109896
   2 C :    0.230316    0.207813
   3 C :    0.241245    0.240303
   4 C :    0.264903    0.167161
   5 C :    0.261263    0.086141
   6 C :    0.316593    0.041697
   7 C :    0.325830    0.021726
   8 F :   -0.176754   -0.000828
   9 F :   -0.176866   -0.000843
  10 F :   -0.185258    0.012748
  11 F :   -0.204168    0.002555
  12 F :   -0.203929    0.002550
  13 F :   -0.225669    0.003912
  14 F :   -0.223869    0.003650
  15 F :   -0.231840    0.004011
  16 F :   -0.228216    0.003530
  17 F :   -0.219619    0.001596
  18 F :   -0.220475    0.001881
  19 F :   -0.211009    0.000608
  20 F :   -0.211722    0.001423
  21 F :   -0.218945    0.000735
  22 F :   -0.223271    0.001366
  23 O :   -0.551516    0.012796
  24 O :   -0.558637    0.013099
  25 O :   -0.749101   -0.000035
  26 H :    0.333607   -0.000000
  27 H :    0.358229   -0.000088
  28 H :    0.357390   -0.000209
  29 O :   -0.743081   -0.000103
  30 H :    0.331478    0.000462
Sum of atomic charges         :   -2.0000000

LOEWDIN ATOMIC CHARGES AND SPIN POPULATIONS
-------------------------------------------
   0 C :   -0.670610    0.051989
   1 C :   -0.491399    0.118874
   2 C :   -0.485391    0.186604
   3 C :   -0.485953    0.203798
   4 C :   -0.483434    0.150811
   5 C :   -0.477033    0.082374
   6 C :   -0.464227    0.045441
   7 C :   -0.655018    0.025331
   8 F :    0.206079    0.000803
   9 F :    0.206051    0.000775
  10 F :    0.173004    0.019885
  11 F :    0.172523    0.006471
  12 F :    0.172988    0.006362
  13 F :    0.142903    0.011533
  14 F :    0.146729    0.010998
  15 F :    0.133392    0.012463
  16 F :    0.139789    0.011820
  17 F :    0.155357    0.007810
  18 F :    0.154600    0.008062
  19 F :    0.179936    0.003279
  20 F :    0.173618    0.004016
  21 F :    0.164048    0.002344
  22 F :    0.155474    0.003064
  23 O :   -0.045890    0.012339
  24 O :   -0.048684    0.012707
  25 O :   -0.372138   -0.000050
  26 H :    0.152645   -0.000004
  27 H :    0.137642   -0.000062
  28 H :    0.134140   -0.000059
  29 O :   -0.366572   -0.000048
  30 H :    0.145429    0.000271

  Mayer bond orders larger than 0.100000
B(  0-C ,  1-C ) :   0.9441 B(  0-C ,  8-F ) :   1.1256 B(  0-C ,  9-F ) :   1.1252
B(  0-C , 10-F ) :   1.0841 B(  1-C ,  2-C ) :   0.9135 B(  1-C , 11-F ) :   1.0373
B(  1-C , 12-F ) :   1.0366 B(  2-C ,  3-C ) :   0.8924 B(  2-C , 13-F ) :   1.0027
B(  2-C , 14-F ) :   1.0052 B(  3-C ,  4-C ) :   0.8939 B(  3-C , 15-F ) :   0.9871
B(  3-C , 16-F ) :   0.9950 B(  4-C ,  5-C ) :   0.8742 B(  4-C , 17-F ) :   1.0181
B(  4-C , 18-F ) :   1.0141 B(  5-C ,  6-C ) :   0.8802 B(  5-C , 19-F ) :   1.0379
B(  5-C , 20-F ) :   1.0478 B(  6-C ,  7-C ) :   0.8971 B(  6-C , 21-F ) :   1.0311
B(  6-C , 22-F ) :   1.0226 B(  7-C , 23-O ) :   1.6843 B(  7-C , 24-O ) :   1.6845
B( 23-O , 28-H ) :   0.1216 B( 24-O , 27-H ) :   0.1160 B( 25-O , 26-H ) :   0.9009
B( 25-O , 27-H ) :   0.8079 B( 28-H , 29-O ) :   0.8118 B( 29-O , 30-H ) :   0.9004

Dispersion correction           -0.010017320
FINAL SINGLE POINT ENERGY     -2105.928189557495

DIPOLE MOMENT
-------------

Method             : SCF
Type of density    : Electron Density
Multiplicity       :   2
Irrep              :   0
Energy             : -2105.9181722371572505 Eh
Relativity type    :
Basis              : AO
                                X                 Y                 Z
Electronic contribution:      2.747319993      37.642690386       7.289689321
Nuclear contribution   :     -2.712831884     -30.582373497      -6.049997051
                        -----------------------------------------
Total Dipole Moment    :      0.034488108       7.060316889       1.239692270
                        -----------------------------------------
Magnitude (a.u.)       :      7.168409930
Magnitude (Debye)      :     18.220650023

VIBRATIONAL FREQUENCIES
-----------------------

Scaling factor for frequencies =  1.000000000  (already applied!)

     0:       0.00 cm**-1
     1:       0.00 cm**-1
     2:       0.00 cm**-1
     3:       0.00 cm**-1
     4:       0.00 cm**-1
     5:       0.00 cm**-1
     6:      -4.63 cm**-1  ***imaginary mode***
     7:      20.90 cm**-1
     8:      24.18 cm**-1
     9:      33.77 cm**-1
    10:      40.51 cm**-1
    11:      45.03 cm**-1
    12:      48.44 cm**-1
    13:      57.84 cm**-1
    14:      59.13 cm**-1
    15:      69.68 cm**-1
    16:      71.89 cm**-1
    17:      81.25 cm**-1
    18:      90.70 cm**-1
    19:     101.64 cm**-1
    20:     104.41 cm**-1
    21:     136.37 cm**-1
    22:     152.81 cm**-1
    23:     162.69 cm**-1
    24:     172.38 cm**-1
    25:     186.84 cm**-1
    26:     202.52 cm**-1
    27:     204.14 cm**-1
    28:     212.65 cm**-1
    29:     230.17 cm**-1
    30:     242.90 cm**-1
    31:     248.96 cm**-1
    32:     252.43 cm**-1
    33:     258.54 cm**-1
    34:     283.29 cm**-1
    35:     322.61 cm**-1
    36:     327.81 cm**-1
    37:     329.68 cm**-1
    38:     332.01 cm**-1
    39:     337.32 cm**-1
    40:     348.96 cm**-1
    41:     361.99 cm**-1
    42:     370.43 cm**-1
    43:     380.94 cm**-1
    44:     419.75 cm**-1
    45:     431.83 cm**-1
    46:     462.04 cm**-1
    47:     471.77 cm**-1
    48:     482.77 cm**-1
    49:     514.63 cm**-1
    50:     526.86 cm**-1
    51:     536.25 cm**-1
    52:     565.93 cm**-1
    53:     569.71 cm**-1
    54:     591.47 cm**-1
    55:     600.86 cm**-1
    56:     606.40 cm**-1
    57:     629.77 cm**-1
    58:     648.07 cm**-1
    59:     678.13 cm**-1
    60:     693.82 cm**-1
    61:     711.33 cm**-1
    62:     727.60 cm**-1
    63:     740.96 cm**-1
    64:     781.92 cm**-1
    65:     807.18 cm**-1
    66:     833.34 cm**-1
    67:     911.89 cm**-1
    68:     934.73 cm**-1
    69:     955.06 cm**-1
    70:     983.11 cm**-1
    71:    1006.21 cm**-1
    72:    1024.89 cm**-1
    73:    1030.82 cm**-1
    74:    1059.05 cm**-1
    75:    1063.27 cm**-1
    76:    1066.75 cm**-1
    77:    1075.12 cm**-1
    78:    1090.44 cm**-1
    79:    1097.63 cm**-1
    80:    1116.01 cm**-1
    81:    1132.65 cm**-1
    82:    1170.48 cm**-1
    83:    1171.78 cm**-1
    84:    1257.73 cm**-1
    85:    1387.50 cm**-1
    86:    1672.33 cm**-1
    87:    1683.39 cm**-1
    88:    1699.93 cm**-1
    89:    3419.78 cm**-1
    90:    3450.70 cm**-1
    91:    3853.80 cm**-1
    92:    3855.87 cm**-1

IR SPECTRUM
-----------

 Mode   freq       eps      Int      T**2         TX        TY        TZ
       cm**-1   L/(mol*cm) km/mol    a.u.
----------------------------------------------------------------------------
  7:     20.90   0.000106    0.54  0.001590  (-0.012708 -0.026226 -0.027218)
  8:     24.18   0.000037    0.19  0.000475  (-0.010402  0.015497 -0.011235)
  9:     33.77   0.000026    0.13  0.000236  (-0.003539 -0.014484  0.003695)
 10:     40.51   0.000388    1.96  0.002991  ( 0.027895  0.008253 -0.046306)
 11:     45.03   0.000070    0.36  0.000488  (-0.020634  0.006211 -0.004905)
 12:     48.44   0.000109    0.55  0.000705  ( 0.012461  0.020544 -0.011290)
 13:     57.84   0.000912    4.61  0.004918  ( 0.056042  0.042148 -0.000789)
 14:     59.13   0.000442    2.23  0.002332  (-0.027978  0.038735  0.006953)
 15:     69.68   0.001311    6.63  0.005871  (-0.018242 -0.057546 -0.047187)
 16:     71.89   0.000127    0.64  0.000550  (-0.003812 -0.018961 -0.013272)
 17:     81.25   0.029619  149.68  0.113764  (-0.074733  0.218667  0.245689)
 18:     90.70   0.000364    1.84  0.001254  (-0.020614  0.028016  0.006646)
 19:    101.64   0.000251    1.27  0.000771  ( 0.007306 -0.012425 -0.023742)
 20:    104.41   0.005105   25.80  0.015257  ( 0.008679  0.114055  0.046619)
 21:    136.37   0.033682  170.21  0.077075  (-0.011947  0.262035  0.090939)
 22:    152.81   0.024464  123.63  0.049959  (-0.010339 -0.216744 -0.053609)
 23:    162.69   0.005032   25.43  0.009652  ( 0.030731 -0.057380 -0.073588)
 24:    172.38   0.022621  114.32  0.040950  (-0.089335  0.020100  0.180458)
 25:    186.84   0.001445    7.30  0.002413  (-0.025528  0.041947 -0.001215)
 26:    202.52   0.001870    9.45  0.002881  (-0.041218  0.006343 -0.033788)
 27:    204.14   0.004636   23.43  0.007086  ( 0.081150  0.010481  0.019782)
 28:    212.65   0.002035   10.28  0.002987  (-0.048497 -0.010697 -0.022806)
 29:    230.17   0.002455   12.41  0.003328  (-0.047607 -0.009798 -0.031078)
 30:    242.90   0.000420    2.12  0.000539  (-0.019269 -0.006724 -0.011066)
 31:    248.96   0.000977    4.94  0.001225  ( 0.009252  0.032447  0.009284)
 32:    252.43   0.018408   93.02  0.022756  (-0.007332 -0.146918 -0.033424)
 33:    258.54   0.000246    1.24  0.000297  ( 0.015382 -0.002787  0.007270)
 34:    283.29   0.005430   27.44  0.005981  (-0.070259  0.010275 -0.030649)
 35:    322.61   0.003914   19.78  0.003786  (-0.003312  0.059769  0.014242)
 36:    327.81   0.005548   28.04  0.005281  (-0.004080 -0.069830 -0.019713)
 37:    329.68   0.017483   88.35  0.016549  ( 0.004202  0.123843  0.034558)
 38:    332.01   0.000017    0.09  0.000016  ( 0.002375 -0.003201 -0.000341)
 39:    337.32   0.000353    1.78  0.000327  (-0.002256 -0.014727 -0.010226)
 40:    348.96   0.017112   86.48  0.015303  (-0.001235  0.118979  0.033845)
 41:    361.99   0.002004   10.13  0.001728  (-0.006319 -0.040155 -0.008691)
 42:    370.43   0.000112    0.57  0.000094  ( 0.001929  0.006161  0.007248)
 43:    380.94   0.004554   23.02  0.003731  ( 0.046807  0.032320  0.022260)
 44:    419.75   0.004326   21.86  0.003216  ( 0.056343 -0.005879  0.002608)
 45:    431.83   0.012181   61.56  0.008802  (-0.089157 -0.026801 -0.011625)
 46:    462.04   0.019075   96.40  0.012884  ( 0.084531  0.071880  0.023902)
 47:    471.77   0.000349    1.76  0.000231  (-0.005954 -0.003835  0.013432)
 48:    482.77   0.001348    6.81  0.000871  (-0.005273 -0.028730  0.004261)
 49:    514.63   0.001845    9.33  0.001119  (-0.002208 -0.030619 -0.013292)
 50:    526.86   0.001168    5.91  0.000692  (-0.005641 -0.023839  0.009590)
 51:    536.25   0.009584   48.43  0.005577  ( 0.015233  0.072577 -0.008822)
 52:    565.93   0.000707    3.57  0.000390  ( 0.012581 -0.012986 -0.007946)
 53:    569.71   0.001304    6.59  0.000714  (-0.005015 -0.014635  0.021798)
 54:    591.47   0.002022   10.22  0.001067  (-0.009567 -0.031227  0.000028)
 55:    600.86   0.000108    0.55  0.000056  (-0.006280  0.002731  0.003042)
 56:    606.40   0.000537    2.71  0.000276  (-0.005875 -0.013648 -0.007458)
 57:    629.77   0.023352  118.01  0.011571  (-0.001739  0.101731  0.034916)
 58:    648.07   0.081738  413.07  0.039359  (-0.012460 -0.192886 -0.044712)
 59:    678.13   0.073288  370.37  0.033726  ( 0.002727  0.177063  0.048653)
 60:    693.82   0.042945  217.03  0.019316  (-0.000814 -0.131937 -0.043676)
 61:    711.33   0.023681  119.67  0.010389  ( 0.011945 -0.064472 -0.078035)
 62:    727.60   0.027486  138.91  0.011789  ( 0.052215 -0.030301 -0.090245)
 63:    740.96   0.035249  178.13  0.014846  (-0.002764  0.115653  0.038239)
 64:    781.92   0.008479   42.85  0.003384  ( 0.015387 -0.043474 -0.035456)
 65:    807.18   0.014921   75.40  0.005769  (-0.021008 -0.070834  0.017601)
 66:    833.34   0.019562   98.86  0.007325  ( 0.017183  0.083729 -0.004424)
 67:    911.89   0.000555    2.81  0.000190  ( 0.004158 -0.010890  0.007362)
 68:    934.73   0.003583   18.11  0.001196  (-0.003081  0.027511  0.020731)
 69:    955.06   0.143844  726.93  0.047000  (-0.001414 -0.212837 -0.041219)
 70:    983.11   0.034384  173.76  0.010914  ( 0.022420 -0.095496  0.035946)
 71:   1006.21   0.133614  675.23  0.041439  (-0.053110 -0.196361  0.007763)
 72:   1024.89   0.219976  1111.67  0.066979  (-0.006615  0.220320  0.135627)
 73:   1030.82   0.026662  134.74  0.008071  (-0.075332  0.037143 -0.031889)
 74:   1059.05   0.124088  627.09  0.036564  ( 0.083695 -0.045225 -0.165874)
 75:   1063.27   0.104697  529.09  0.030728  (-0.141243  0.097986 -0.034308)
 76:   1066.75   0.413813  2091.24  0.121055  (-0.039055 -0.287778 -0.191608)
 77:   1075.12   0.032603  164.76  0.009463  ( 0.088137  0.011784 -0.039451)
 78:   1090.44   0.036526  184.59  0.010453  ( 0.088239  0.012424 -0.050125)
 79:   1097.63   0.236139  1193.35  0.067136  ( 0.158927 -0.204148 -0.014205)
 80:   1116.01   0.092939  469.68  0.025988  (-0.065339 -0.018039 -0.146265)
 81:   1132.65   0.027844  140.71  0.007671  (-0.037024 -0.056148 -0.056108)
 82:   1170.48   0.113532  573.74  0.030269  ( 0.138272 -0.014836  0.104545)
 83:   1171.78   0.290269  1466.90  0.077303  ( 0.047634  0.273040  0.021980)
 84:   1257.73   0.413066  2087.47  0.102488  (-0.038888 -0.316057 -0.032920)
 85:   1387.50   0.167055  844.23  0.037573  ( 0.015258  0.190544  0.032137)
 86:   1672.33   0.041813  211.31  0.007803  (-0.042448  0.056545 -0.052947)
 87:   1683.39   0.097116  490.79  0.018003  ( 0.115154 -0.048775  0.048620)
 88:   1699.93   0.152586  771.11  0.028011  ( 0.157542  0.011652  0.055279)
 89:   3419.78   0.335018  1693.04  0.030571  ( 0.163043 -0.002295  0.063111)
 90:   3450.70   0.136197  688.28  0.012317  ( 0.090111  0.027426  0.058692)
 91:   3853.80   0.020280  102.49  0.001642  (-0.034916 -0.020551 -0.000860)
 92:   3855.87   0.006818   34.45  0.000552  (-0.012892 -0.019635  0.000223)

--------------------------
THERMOCHEMISTRY AT 298.15K
--------------------------

Temperature         ...   298.15 K
Pressure            ...     1.00 atm
Total Mass          ...   449.09 AMU
Quasi RRHO          ...     True
Cut-Off Frequency   ...     1.00 cm^-1

Throughout the following assumptions are being made:
  (1) The electronic state is orbitally nondegenerate
      but the spin degeneracy is treated
  (2) There are no thermally accessible electronically excited states
  (3) Hindered rotations indicated by low frequency modes are not
      treated as such but are treated as vibrations and this may
      cause some error
  (4) All equations used are the standard statistical mechanics
      equations for an ideal gas
  (5) All vibrations are strictly harmonic

freq.      20.90  E(vib)   ...       0.56
freq.      24.18  E(vib)   ...       0.56
freq.      33.77  E(vib)   ...       0.55
freq.      40.51  E(vib)   ...       0.54
freq.      45.03  E(vib)   ...       0.53
freq.      48.44  E(vib)   ...       0.53
freq.      57.84  E(vib)   ...       0.51
freq.      59.13  E(vib)   ...       0.51
freq.      69.68  E(vib)   ...       0.50
freq.      71.89  E(vib)   ...       0.50
freq.      81.25  E(vib)   ...       0.48
freq.      90.70  E(vib)   ...       0.47
freq.     101.64  E(vib)   ...       0.46
freq.     104.41  E(vib)   ...       0.46
freq.     136.37  E(vib)   ...       0.42
freq.     152.81  E(vib)   ...       0.40
freq.     162.69  E(vib)   ...       0.39
freq.     172.38  E(vib)   ...       0.38
freq.     186.84  E(vib)   ...       0.36
freq.     202.52  E(vib)   ...       0.35
freq.     204.14  E(vib)   ...       0.35
freq.     212.65  E(vib)   ...       0.34
freq.     230.17  E(vib)   ...       0.32
freq.     242.90  E(vib)   ...       0.31
freq.     248.96  E(vib)   ...       0.31
freq.     252.43  E(vib)   ...       0.30
freq.     258.54  E(vib)   ...       0.30
freq.     283.29  E(vib)   ...       0.28
freq.     322.61  E(vib)   ...       0.25
freq.     327.81  E(vib)   ...       0.24
freq.     329.68  E(vib)   ...       0.24
freq.     332.01  E(vib)   ...       0.24
freq.     337.32  E(vib)   ...       0.24
freq.     348.96  E(vib)   ...       0.23
freq.     361.99  E(vib)   ...       0.22
freq.     370.43  E(vib)   ...       0.21
freq.     380.94  E(vib)   ...       0.21
freq.     419.75  E(vib)   ...       0.18
freq.     431.83  E(vib)   ...       0.18
freq.     462.04  E(vib)   ...       0.16
freq.     471.77  E(vib)   ...       0.15
freq.     482.77  E(vib)   ...       0.15
freq.     514.63  E(vib)   ...       0.13
freq.     526.86  E(vib)   ...       0.13
freq.     536.25  E(vib)   ...       0.12
freq.     565.93  E(vib)   ...       0.11
freq.     569.71  E(vib)   ...       0.11
freq.     591.47  E(vib)   ...       0.10
freq.     600.86  E(vib)   ...       0.10
freq.     606.40  E(vib)   ...       0.10
freq.     629.77  E(vib)   ...       0.09
freq.     648.07  E(vib)   ...       0.08
freq.     678.13  E(vib)   ...       0.08
freq.     693.82  E(vib)   ...       0.07
freq.     711.33  E(vib)   ...       0.07
freq.     727.60  E(vib)   ...       0.06
freq.     740.96  E(vib)   ...       0.06
freq.     781.92  E(vib)   ...       0.05
freq.     807.18  E(vib)   ...       0.05
freq.     833.34  E(vib)   ...       0.04
freq.     911.89  E(vib)   ...       0.03
freq.     934.73  E(vib)   ...       0.03
freq.     955.06  E(vib)   ...       0.03
freq.     983.11  E(vib)   ...       0.02
freq.    1006.21  E(vib)   ...       0.02
freq.    1024.89  E(vib)   ...       0.02
freq.    1030.82  E(vib)   ...       0.02
freq.    1059.05  E(vib)   ...       0.02
freq.    1063.27  E(vib)   ...       0.02
freq.    1066.75  E(vib)   ...       0.02
freq.    1075.12  E(vib)   ...       0.02
freq.    1090.44  E(vib)   ...       0.02
freq.    1097.63  E(vib)   ...       0.02
freq.    1116.01  E(vib)   ...       0.01
freq.    1132.65  E(vib)   ...       0.01
freq.    1170.48  E(vib)   ...       0.01
freq.    1171.78  E(vib)   ...       0.01
freq.    1257.73  E(vib)   ...       0.01
freq.    1387.50  E(vib)   ...       0.00
freq.    1672.33  E(vib)   ...       0.00
freq.    1683.39  E(vib)   ...       0.00
freq.    1699.93  E(vib)   ...       0.00
freq.    3419.78  E(vib)   ...       0.00
freq.    3450.70  E(vib)   ...       0.00
freq.    3853.80  E(vib)   ...       0.00
freq.    3855.87  E(vib)   ...       0.00

------------
INNER ENERGY
------------

The inner energy is: U= E(el) + E(ZPE) + E(vib) + E(rot) + E(trans)
    E(el)   - is the total energy from the electronic structure calculation
              = E(kin-el) + E(nuc-el) + E(el-el) + E(nuc-nuc)
    E(ZPE)  - the the zero temperature vibrational energy from the frequency calculation
    E(vib)  - the the finite temperature correction to E(ZPE) due to population
              of excited vibrational states
    E(rot)  - is the rotational thermal energy
    E(trans)- is the translational thermal energy

Summary of contributions to the inner energy U:
Electronic energy                ...  -2105.92818956 Eh
Zero point energy                ...      0.13922140 Eh      87.36 kcal/mol
Thermal vibrational correction   ...      0.02673603 Eh      16.78 kcal/mol
Thermal rotational correction    ...      0.00141627 Eh       0.89 kcal/mol
Thermal translational correction ...      0.00141627 Eh       0.89 kcal/mol
-----------------------------------------------------------------------
Total thermal energy                  -2105.75939959 Eh

Summary of corrections to the electronic energy:
(perhaps to be used in another calculation)
Total thermal correction                  0.02956858 Eh      18.55 kcal/mol
Non-thermal (ZPE) correction              0.13922140 Eh      87.36 kcal/mol
-----------------------------------------------------------------------
Total correction                          0.16878997 Eh     105.92 kcal/mol

--------
ENTHALPY
--------

The enthalpy is H = U + kB*T
                kB is Boltzmann's constant
Total thermal energy              ...  -2105.75939959 Eh
Thermal Enthalpy correction       ...      0.00094421 Eh       0.59 kcal/mol
-----------------------------------------------------------------------
Total Enthalpy                    ...  -2105.75845538 Eh

Note: Only C1 symmetry has been detected, increase convergence thresholds
      if your molecule has a higher symmetry. Symmetry factor of 1.0 is
      used for the rotational entropy correction.

Note: Rotational entropy computed according to Herzberg
Infrared and Raman Spectra, Chapter V,1, Van Nostrand Reinhold, 1945
Point Group:  C1, Symmetry Number:   1
Rotational constants in cm-1:     0.013686     0.002983     0.002771

Vibrational entropy computed according to the QRRHO of S. Grimme

                             ****ORCA TERMINATED NORMALLY****
TOTAL RUN TIME: 0 days 0 hours 33 minutes 11 seconds 753 msec
