                         Program Version 5.0.3 -  RELEASE  -
|  1> !TPSSh def2-TZVP opt d3 TightSCF SlowConv defgrid2
|  2>
|  3> %pal
|  4> nprocs 20
|  5> end
|  6>
|  7> %scf
|  8> MaxIter 1500
|  9> end
| 10>
| 11> %maxcore 8000
| 12>
| 13> !CPCM
| 14> %cpcm smd true
| 15> SMDsolvent "ACETONITRILE"
| 16> end
| 17>
| 18> * xyz -1 2
| 19> 6        4.790427000     -0.033865800     -0.529943200
| 20> 8        5.449345000     -1.206924000     -0.894594600
| 21> 8        4.978223000      1.323071000     -0.737377200
| 22> 6        3.506687600     -0.338741600      0.376153800
| 23> 6        2.222300000      0.400524800     -0.110681600
| 24> 6        0.900506800     -0.386389800      0.175703000
| 25> 6       -0.395261200      0.487294000      0.065549000
| 26> 6       -1.705693600     -0.364773800     -0.068373600
| 27> 6       -3.005136200      0.445344800      0.258164000
| 28> 6       -4.319880200     -0.214526000     -0.270540800
| 29> 9        3.211587400     -1.692050400      0.412735200
| 30> 9        3.741061800      0.055285800      1.689948800
| 31> 9        2.125696800      1.616867800      0.483236600
| 32> 9        0.794028800     -1.413561400     -0.700839000
| 33> 9        0.958350600     -0.884509000      1.435093400
| 34> 9       -0.498373400      1.260265600      1.173340200
| 35> 9       -0.299075000      1.289512600     -1.020910800
| 36> 9       -1.641790400     -1.418189000      0.779523800
| 37> 9       -1.792381400     -0.831391600     -1.336863600
| 38> 9       -2.918792200      1.679227200     -0.295171200
| 39> 9       -3.119771000      0.573779800      1.598579800
| 40> 9       -4.383115600     -1.504377600      0.089127600
| 41> 9       -5.365669800      0.430528600      0.260394200
| 42> 9       -4.396020400     -0.128550600     -1.602941800
| 43> *
| 44>
| 45>                          ****END OF INPUT****
 Total Charge           Charge          ....   -1
 Multiplicity           Mult            ....    2
 Number of Electrons    NEL             ....  191
Dispersion correction           -0.028696521
FINAL SINGLE POINT ENERGY     -1853.892891013172
Dispersion correction            ... done
Dispersion correction           -0.028802342
FINAL SINGLE POINT ENERGY     -1853.935615656622
Dispersion correction            ... done
Dispersion correction           -0.028880718
FINAL SINGLE POINT ENERGY     -1853.943262816174
Dispersion correction            ... done
FINAL SINGLE POINT ENERGY     -1853.947424512890
FINAL SINGLE POINT ENERGY     -1853.947343101935
FINAL SINGLE POINT ENERGY     -1853.949518494737
FINAL SINGLE POINT ENERGY     -1853.950034379124
FINAL SINGLE POINT ENERGY     -1853.950489365068
FINAL SINGLE POINT ENERGY     -1853.950822961139
FINAL SINGLE POINT ENERGY     -1853.951189897179
FINAL SINGLE POINT ENERGY     -1853.952656201191
FINAL SINGLE POINT ENERGY     -1853.952823815313
FINAL SINGLE POINT ENERGY     -1853.953031139472
FINAL SINGLE POINT ENERGY     -1853.953186037110
FINAL SINGLE POINT ENERGY     -1853.953213782611
FINAL SINGLE POINT ENERGY     -1853.953210953675
FINAL SINGLE POINT ENERGY     -1853.953209338203
Dispersion correction            ... done
Dispersion correction           -0.029585628
FINAL SINGLE POINT ENERGY     -1853.953202441219
Dispersion correction            ... done
Dispersion correction           -0.029584085
FINAL SINGLE POINT ENERGY     -1853.953203934366
Dispersion correction            ... done
                    ***********************HURRAY********************

CARTESIAN COORDINATES (ANGSTROEM)
---------------------------------
  C      3.573618   -0.426927   -1.182197
  O      4.217493   -1.411615   -1.570685
  O      2.930967    0.443318   -1.809884
  C      3.574718   -0.137276    0.358235
  C      2.256198    0.327001    0.878397
  C      0.981878   -0.439141    0.773192
  C     -0.274134    0.459955    0.498922
  C     -1.520575   -0.321769   -0.032172
  C     -2.865314    0.463441    0.123629
  C     -4.025771   -0.070336   -0.776551
  F      4.022327   -1.217253    1.106625
  F      4.490610    0.867476    0.605318
  F      2.267211    1.206427    1.891211
  F      1.084465   -1.360245   -0.216611
  F      0.728046   -1.120087    1.940852
  F     -0.611838    1.087151    1.651546
  F      0.050590    1.397156   -0.415868
  F     -1.639691   -1.488422    0.637567
  F     -1.328702   -0.595986   -1.341969
  F     -2.674201    1.763431   -0.190170
  F     -3.269738    0.381754    1.406903
  F     -4.129904   -1.399983   -0.679383
  F     -5.175931    0.478679   -0.372674
  F     -3.825069    0.257104   -2.054920

 Multiplicity           Mult            ....    2
 Number of Electrons    NEL             ....  191
 Basis Dimension        Dim             ....  744

ORBITAL ENERGIES
----------------
                 SPIN UP ORBITALS
  NO   OCC          E(Eh)            E(eV)
   0   1.0000     -24.660049      -671.0340
   1   1.0000     -24.659014      -671.0059
   2   1.0000     -24.658461      -670.9908
   3   1.0000     -24.658320      -670.9870
   4   1.0000     -24.657333      -670.9601
   5   1.0000     -24.656988      -670.9508
   6   1.0000     -24.656756      -670.9444
   7   1.0000     -24.652636      -670.8323
   8   1.0000     -24.650993      -670.7876
   9   1.0000     -24.646673      -670.6701
  10   1.0000     -24.646237      -670.6582
  11   1.0000     -24.636290      -670.3875
  12   1.0000     -24.610368      -669.6822
  13   1.0000     -24.603348      -669.4911
  14   1.0000     -18.991971      -516.7978
  15   1.0000     -18.991739      -516.7915
  16   1.0000     -10.394535      -282.8497
  17   1.0000     -10.341809      -281.4149
  18   1.0000     -10.341102      -281.3957
  19   1.0000     -10.334149      -281.2065
  20   1.0000     -10.326887      -281.0089
  21   1.0000     -10.274993      -279.5968
  22   1.0000     -10.234883      -278.5053
  23   1.0000     -10.189658      -277.2747
  24   1.0000      -1.321103       -35.9490
  25   1.0000      -1.294621       -35.2284
  26   1.0000      -1.278512       -34.7901
  27   1.0000      -1.273102       -34.6429
  28   1.0000      -1.261600       -34.3299
  29   1.0000      -1.239580       -33.7307
  30   1.0000      -1.235937       -33.6316
  31   1.0000      -1.230420       -33.4814
  32   1.0000      -1.227879       -33.4123
  33   1.0000      -1.221039       -33.2261
  34   1.0000      -1.219009       -33.1709
  35   1.0000      -1.216710       -33.1084
  36   1.0000      -1.203354       -32.7449
  37   1.0000      -1.165567       -31.7167
  38   1.0000      -0.999738       -27.2043
  39   1.0000      -0.918507       -24.9938
  40   1.0000      -0.821825       -22.3630
  41   1.0000      -0.805157       -21.9094
  42   1.0000      -0.772601       -21.0236
  43   1.0000      -0.728663       -19.8279
  44   1.0000      -0.686247       -18.6737
  45   1.0000      -0.658176       -17.9099
  46   1.0000      -0.631583       -17.1863
  47   1.0000      -0.619275       -16.8513
  48   1.0000      -0.614638       -16.7251
  49   1.0000      -0.608539       -16.5592
  50   1.0000      -0.596324       -16.2268
  51   1.0000      -0.591006       -16.0821
  52   1.0000      -0.589557       -16.0427
  53   1.0000      -0.575968       -15.6729
  54   1.0000      -0.572126       -15.5683
  55   1.0000      -0.565673       -15.3927
  56   1.0000      -0.559847       -15.2342
  57   1.0000      -0.549825       -14.9615
  58   1.0000      -0.540784       -14.7155
  59   1.0000      -0.532231       -14.4827
  60   1.0000      -0.515424       -14.0254
  61   1.0000      -0.484656       -13.1882
  62   1.0000      -0.480156       -13.0657
  63   1.0000      -0.479791       -13.0558
  64   1.0000      -0.473679       -12.8895
  65   1.0000      -0.468836       -12.7577
  66   1.0000      -0.466696       -12.6994
  67   1.0000      -0.460331       -12.5262
  68   1.0000      -0.454342       -12.3633
  69   1.0000      -0.452260       -12.3066
  70   1.0000      -0.446249       -12.1430
  71   1.0000      -0.443376       -12.0649
  72   1.0000      -0.438770       -11.9395
  73   1.0000      -0.433408       -11.7936
  74   1.0000      -0.432741       -11.7755
  75   1.0000      -0.424051       -11.5390
  76   1.0000      -0.422104       -11.4860
  77   1.0000      -0.420473       -11.4417
  78   1.0000      -0.417312       -11.3556
  79   1.0000      -0.414659       -11.2834
  80   1.0000      -0.414212       -11.2713
  81   1.0000      -0.411234       -11.1902
  82   1.0000      -0.405598       -11.0369
  83   1.0000      -0.403041       -10.9673
  84   1.0000      -0.401521       -10.9259
  85   1.0000      -0.396054       -10.7772
  86   1.0000      -0.380581       -10.3561
  87   1.0000      -0.378000       -10.2859
  88   1.0000      -0.372703       -10.1418
  89   1.0000      -0.360352        -9.8057
  90   1.0000      -0.352826        -9.6009
  91   1.0000      -0.324038        -8.8175
  92   1.0000      -0.247051        -6.7226
  93   1.0000      -0.234105        -6.3703
  94   1.0000      -0.221923        -6.0388
  95   1.0000      -0.210291        -5.7223
  96   0.0000      -0.016233        -0.4417
  97   0.0000       0.001649         0.0449
  98   0.0000       0.010492         0.2855
  99   0.0000       0.043124         1.1735
 100   0.0000       0.059901         1.6300

                 SPIN DOWN ORBITALS
  NO   OCC          E(Eh)            E(eV)
   0   1.0000     -24.660049      -671.0341
   1   1.0000     -24.659014      -671.0059
   2   1.0000     -24.658457      -670.9907
   3   1.0000     -24.658320      -670.9870
   4   1.0000     -24.657330      -670.9601
   5   1.0000     -24.656982      -670.9506
   6   1.0000     -24.656754      -670.9444
   7   1.0000     -24.652561      -670.8303
   8   1.0000     -24.650927      -670.7858
   9   1.0000     -24.646232      -670.6581
  10   1.0000     -24.642734      -670.5629
  11   1.0000     -24.634838      -670.3480
  12   1.0000     -24.610314      -669.6807
  13   1.0000     -24.601778      -669.4484
  14   1.0000     -18.991130      -516.7749
  15   1.0000     -18.990661      -516.7622
  16   1.0000     -10.394528      -282.8495
  17   1.0000     -10.341791      -281.4144
  18   1.0000     -10.341069      -281.3948
  19   1.0000     -10.333779      -281.1964
  20   1.0000     -10.327501      -281.0256
  21   1.0000     -10.275671      -279.6152
  22   1.0000     -10.219279      -278.0807
  23   1.0000     -10.189597      -277.2730
  24   1.0000      -1.321097       -35.9489
  25   1.0000      -1.294479       -35.2246
  26   1.0000      -1.278294       -34.7842
  27   1.0000      -1.272926       -34.6381
  28   1.0000      -1.260441       -34.2983
  29   1.0000      -1.235936       -33.6315
  30   1.0000      -1.233268       -33.5589
  31   1.0000      -1.230415       -33.4813
  32   1.0000      -1.227815       -33.4106
  33   1.0000      -1.220958       -33.2240
  34   1.0000      -1.217141       -33.1201
  35   1.0000      -1.216055       -33.0906
  36   1.0000      -1.201376       -32.6911
  37   1.0000      -1.163562       -31.6621
  38   1.0000      -0.998349       -27.1665
  39   1.0000      -0.916659       -24.9436
  40   1.0000      -0.820194       -22.3186
  41   1.0000      -0.797070       -21.6894
  42   1.0000      -0.764896       -20.8139
  43   1.0000      -0.725859       -19.7516
  44   1.0000      -0.685305       -18.6481
  45   1.0000      -0.657165       -17.8824
  46   1.0000      -0.627574       -17.0772
  47   1.0000      -0.618297       -16.8247
  48   1.0000      -0.613179       -16.6854
  49   1.0000      -0.608423       -16.5560
  50   1.0000      -0.595690       -16.2096
  51   1.0000      -0.589589       -16.0435
  52   1.0000      -0.588217       -16.0062
  53   1.0000      -0.575243       -15.6532
  54   1.0000      -0.569977       -15.5099
  55   1.0000      -0.563831       -15.3426
  56   1.0000      -0.558479       -15.1970
  57   1.0000      -0.547851       -14.9078
  58   1.0000      -0.535109       -14.5611
  59   1.0000      -0.530116       -14.4252
  60   1.0000      -0.513508       -13.9733
  61   1.0000      -0.484590       -13.1864
  62   1.0000      -0.479774       -13.0553
  63   1.0000      -0.474470       -12.9110
  64   1.0000      -0.470082       -12.7916
  65   1.0000      -0.467970       -12.7341
  66   1.0000      -0.460129       -12.5207
  67   1.0000      -0.454166       -12.3585
  68   1.0000      -0.451858       -12.2957
  69   1.0000      -0.451301       -12.2805
  70   1.0000      -0.444703       -12.1010
  71   1.0000      -0.442057       -12.0290
  72   1.0000      -0.438022       -11.9192
  73   1.0000      -0.433071       -11.7845
  74   1.0000      -0.431227       -11.7343
  75   1.0000      -0.422488       -11.4965
  76   1.0000      -0.421112       -11.4590
  77   1.0000      -0.420077       -11.4309
  78   1.0000      -0.416020       -11.3205
  79   1.0000      -0.414447       -11.2777
  80   1.0000      -0.411707       -11.2031
  81   1.0000      -0.410761       -11.1774
  82   1.0000      -0.404730       -11.0133
  83   1.0000      -0.402030       -10.9398
  84   1.0000      -0.399832       -10.8800
  85   1.0000      -0.394939       -10.7468
  86   1.0000      -0.379458       -10.3256
  87   1.0000      -0.376546       -10.2463
  88   1.0000      -0.370946       -10.0939
  89   1.0000      -0.359806        -9.7908
  90   1.0000      -0.349931        -9.5221
  91   1.0000      -0.322116        -8.7652
  92   1.0000      -0.234251        -6.3743
  93   1.0000      -0.219219        -5.9653
  94   1.0000      -0.217913        -5.9297
  95   0.0000      -0.108173        -2.9435
  96   0.0000      -0.013229        -0.3600
  97   0.0000       0.003772         0.1027
  98   0.0000       0.014391         0.3916
  99   0.0000       0.047499         1.2925

MULLIKEN ATOMIC CHARGES AND SPIN POPULATIONS
--------------------------------------------
   0 C :    0.166304   -0.004356
   1 O :   -0.471380    0.021784
   2 O :   -0.484581    0.035060
   3 C :    0.310561   -0.026280
   4 C :    0.112753    0.826232
   5 C :    0.329158    0.009389
   6 C :    0.295555    0.001881
   7 C :    0.270570    0.002835
   8 C :    0.294180    0.000704
   9 C :    0.408557    0.000281
  10 F :   -0.211882    0.031038
  11 F :   -0.206337    0.001157
  12 F :   -0.165015    0.070737
  13 F :   -0.165291   -0.000578
  14 F :   -0.175372    0.027611
  15 F :   -0.158469    0.001545
  16 F :   -0.152301    0.000869
  17 F :   -0.150183   -0.000099
  18 F :   -0.151261    0.000083
  19 F :   -0.147458   -0.000015
  20 F :   -0.144955    0.000045
  21 F :   -0.136045   -0.000008
  22 F :   -0.133462    0.000077
  23 F :   -0.133643    0.000008
Sum of atomic charges         :   -1.0000000

LOEWDIN ATOMIC CHARGES AND SPIN POPULATIONS
-------------------------------------------
   0 C :   -0.683182    0.001444
   1 O :   -0.038924    0.019404
   2 O :   -0.043954    0.036952
   3 C :   -0.454394    0.044993
   4 C :   -0.179322    0.650657
   5 C :   -0.467844    0.066300
   6 C :   -0.452344    0.011237
   7 C :   -0.460788    0.002190
   8 C :   -0.466870    0.000744
   9 C :   -0.667684    0.000204
  10 F :    0.128269    0.034287
  11 F :    0.144257    0.001569
  12 F :    0.218478    0.095603
  13 F :    0.225670    0.000383
  14 F :    0.177593    0.029729
  15 F :    0.215965    0.001876
  16 F :    0.227333    0.002038
  17 F :    0.225187    0.000040
  18 F :    0.223183    0.000184
  19 F :    0.224024    0.000003
  20 F :    0.225652    0.000070
  21 F :    0.226004   -0.000007
  22 F :    0.225982    0.000089
  23 F :    0.227710    0.000011

  Mayer bond orders larger than 0.100000
B(  0-C ,  1-O ) :   1.8765 B(  0-C ,  2-O ) :   1.8085 B(  0-C ,  3-C ) :   0.8882
B(  3-C ,  4-C ) :   0.9967 B(  3-C , 10-F ) :   1.0330 B(  3-C , 11-F ) :   1.0117
B(  4-C ,  5-C ) :   1.0420 B(  4-C , 12-F ) :   1.0582 B(  5-C ,  6-C ) :   0.9393
B(  5-C , 13-F ) :   1.0685 B(  5-C , 14-F ) :   1.0681 B(  6-C ,  7-C ) :   0.9394
B(  6-C , 15-F ) :   1.0808 B(  6-C , 16-F ) :   1.1021 B(  7-C ,  8-C ) :   0.9390
B(  7-C , 17-F ) :   1.0960 B(  7-C , 18-F ) :   1.0999 B(  8-C ,  9-C ) :   0.9719
B(  8-C , 19-F ) :   1.1014 B(  8-C , 20-F ) :   1.1110 B(  9-C , 21-F ) :   1.1581
B(  9-C , 22-F ) :   1.1626 B(  9-C , 23-F ) :   1.1705

Dispersion correction           -0.029585286
FINAL SINGLE POINT ENERGY     -1853.953203597172

DIPOLE MOMENT
-------------
                                X             Y             Z
Electronic contribution:    -14.22003       1.43963       4.94973
Nuclear contribution   :      7.56220      -0.65816      -2.77408
                        -----------------------------------------
Total Dipole Moment    :     -6.65784       0.78147       2.17565
                        -----------------------------------------
Magnitude (a.u.)       :      7.04776
Magnitude (Debye)      :     17.91399

Rotational constants in cm-1:     0.018792     0.004367     0.004170
Rotational constants in MHz :   563.363985   130.918536   125.024920

                             ****ORCA TERMINATED NORMALLY****
TOTAL RUN TIME: 0 days 1 hours 30 minutes 38 seconds 967 msec
