                         Program Version 6.0.1  -  RELEASE   -
|  1> !r2scanh def2-TZVP opt d3 TightSCF SlowConv defgrid2
|  2>
|  3> %pal
|  4> nprocs 20
|  5> end
|  6>
|  7> %scf
|  8> MaxIter 1500
|  9> end
| 10>
| 11> %maxcore 8000
| 12>
| 13> !CPCM
| 14> %cpcm smd true
| 15> SMDsolvent "ACETONITRILE"
| 16> end
| 17>
| 18> * xyz -2 2
| 19> 6        6.857280945     27.901753127      3.100719684
| 20> 6        6.154044945     26.704598127      2.411135684
| 21> 6        7.086539945     25.482838127      2.185613684
| 22> 6        6.299616945     24.171731127      1.900070684
| 23> 6        7.185881945     23.070259127      1.248991684
| 24> 6        6.565390945     21.647303127      1.360366684
| 25> 6        7.185681945     20.616666127      0.394672684
| 26> 6        6.843394945     19.121603127      0.784430684
| 27> 9        8.006806945     28.182557127      2.503585684
| 28> 9        7.082780945     27.647576127      4.378925684
| 29> 9        6.067588945     28.966668127      3.018348684
| 30> 9        5.116418945     26.361022127      3.182510684
| 31> 9        5.702795945     27.135986127      1.230360684
| 32> 9        7.887905945     25.777720127      1.156931684
| 33> 9        7.829891945     25.318192127      3.287321684
| 34> 9        5.806494945     23.745652127      3.066652684
| 35> 9        5.287431945     24.474179127      1.076603684
| 36> 9        7.350609945     23.413929127     -0.034316316
| 37> 9        8.377622945     23.098911127      1.865134684
| 38> 9        6.756126945     21.255165127      2.631170684
| 39> 9        5.250981945     21.784657127      1.133608684
| 40> 9        6.706596945     20.903759127     -0.845345316
| 41> 9        8.519170945     20.869305127      0.364163684
| 42> 8        7.813741945     18.363469127      0.789215684
| 43> 8        5.634555945     18.967368127      0.997888684
| 44> 8        2.818390092     18.736599843      1.412612662
| 45> 1        2.716934106     17.791620290      1.243555674
| 46> 1        3.748070901     18.906228277      1.215686974
| 47> *
| 48>
| 49>                          ****END OF INPUT****
 Total Charge           Charge          ....   -2
 Multiplicity           Mult            ....    2
 Number of Electrons    NEL             ....  211
Dispersion correction           -0.009135516
FINAL SINGLE POINT ENERGY     -2029.449063870571
Dispersion correction             ... done (  0.0 sec)
Dispersion correction           -0.008938553
FINAL SINGLE POINT ENERGY     -2029.473677189746
Dispersion correction             ... done (  0.0 sec)
Dispersion correction           -0.008831615
FINAL SINGLE POINT ENERGY     -2029.483302879708
Dispersion correction             ... done (  0.0 sec)
FINAL SINGLE POINT ENERGY     -2029.485690625859
FINAL SINGLE POINT ENERGY     -2029.487399746126
FINAL SINGLE POINT ENERGY     -2029.488453766616
FINAL SINGLE POINT ENERGY     -2029.488825232539
FINAL SINGLE POINT ENERGY     -2029.489059933754
FINAL SINGLE POINT ENERGY     -2029.489211548192
FINAL SINGLE POINT ENERGY     -2029.489375205839
FINAL SINGLE POINT ENERGY     -2029.491105173724
FINAL SINGLE POINT ENERGY     -2029.491114597182
FINAL SINGLE POINT ENERGY     -2029.491122410249
FINAL SINGLE POINT ENERGY     -2029.491132270765
FINAL SINGLE POINT ENERGY     -2029.491138868010
FINAL SINGLE POINT ENERGY     -2029.491143342147
FINAL SINGLE POINT ENERGY     -2029.491145209273
Dispersion correction             ... done (  0.0 sec)
Dispersion correction           -0.008999918
FINAL SINGLE POINT ENERGY     -2029.491146676633
Dispersion correction             ... done (  0.0 sec)
Dispersion correction           -0.009000125
FINAL SINGLE POINT ENERGY     -2029.491146961662
Dispersion correction             ... done (  0.0 sec)
                    ***********************HURRAY********************

CARTESIAN COORDINATES (ANGSTROEM)
---------------------------------
  C      6.834039   28.252806    2.605929
  C      6.284703   26.826906    2.781828
  C      6.903577   25.584231    2.085237
  C      6.424810   24.094110    2.170117
  C      7.047459   22.850847    1.468850
  C      6.539579   21.401143    1.704337
  C      7.037506   20.256780    0.785910
  C      6.708600   18.833502    1.333579
  F      6.777336   28.627718    1.325541
  F      8.103880   28.324849    3.012994
  F      6.144742   29.182153    3.314350
  F      6.330841   26.593546    4.129667
  F      4.977148   26.899437    2.386169
  F      6.859173   25.890217    0.734796
  F      8.217641   25.566576    2.509612
  F      6.470597   23.792320    3.522107
  F      5.110069   24.126743    1.754863
  F      6.941248   23.081425    0.122129
  F      8.373611   22.849304    1.808740
  F      6.866265   21.065921    2.982588
  F      5.183146   21.420588    1.614008
  F      6.475206   20.439428   -0.443431
  F      8.381508   20.416684    0.620663
  O      7.635718   18.245142    1.897660
  O      5.523474   18.475191    1.158333
  O      3.288576   19.441145   -0.070535
  H      3.079091   18.675914   -0.612863
  H      4.139209   19.202692    0.357440

 Multiplicity           Mult            ....    2
 Number of Electrons    NEL             ....  211
 Basis Dimension        Dim             ....  818

ORBITAL ENERGIES
----------------
                 SPIN UP ORBITALS
  NO   OCC          E(Eh)            E(eV)
   0   1.0000     -24.707388      -672.3222
   1   1.0000     -24.707279      -672.3192
   2   1.0000     -24.699498      -672.1075
   3   1.0000     -24.689247      -671.8286
   4   1.0000     -24.689046      -671.8231
   5   1.0000     -24.686031      -671.7411
   6   1.0000     -24.683294      -671.6666
   7   1.0000     -24.680700      -671.5960
   8   1.0000     -24.679424      -671.5613
   9   1.0000     -24.674961      -671.4398
  10   1.0000     -24.673707      -671.4057
  11   1.0000     -24.672931      -671.3846
  12   1.0000     -24.672069      -671.3611
  13   1.0000     -24.671967      -671.3584
  14   1.0000     -24.671006      -671.3322
  15   1.0000     -19.066719      -518.8318
  16   1.0000     -19.049970      -518.3760
  17   1.0000     -19.045598      -518.2571
  18   1.0000     -10.405688      -283.1532
  19   1.0000     -10.333959      -281.2013
  20   1.0000     -10.328200      -281.0446
  21   1.0000     -10.323812      -280.9252
  22   1.0000     -10.318081      -280.7692
  23   1.0000     -10.314655      -280.6760
  24   1.0000     -10.308605      -280.5114
  25   1.0000     -10.230568      -278.3879
  26   1.0000      -1.327939       -36.1351
  27   1.0000      -1.280549       -34.8455
  28   1.0000      -1.273126       -34.6435
  29   1.0000      -1.261110       -34.3165
  30   1.0000      -1.253118       -34.0991
  31   1.0000      -1.250437       -34.0261
  32   1.0000      -1.242655       -33.8144
  33   1.0000      -1.240118       -33.7453
  34   1.0000      -1.231118       -33.5004
  35   1.0000      -1.217882       -33.1403
  36   1.0000      -1.216325       -33.0979
  37   1.0000      -1.206222       -32.8230
  38   1.0000      -1.199821       -32.6488
  39   1.0000      -1.196259       -32.5519
  40   1.0000      -1.192376       -32.4462
  41   1.0000      -1.027001       -27.9461
  42   1.0000      -0.967719       -26.3330
  43   1.0000      -0.939967       -25.5778
  44   1.0000      -0.790390       -21.5076
  45   1.0000      -0.782608       -21.2958
  46   1.0000      -0.753650       -20.5079
  47   1.0000      -0.721503       -19.6331
  48   1.0000      -0.682187       -18.5633
  49   1.0000      -0.649995       -17.6873
  50   1.0000      -0.625132       -17.0107
  51   1.0000      -0.596357       -16.2277
  52   1.0000      -0.594788       -16.1850
  53   1.0000      -0.593386       -16.1469
  54   1.0000      -0.580165       -15.7871
  55   1.0000      -0.573781       -15.6134
  56   1.0000      -0.570216       -15.5164
  57   1.0000      -0.559866       -15.2347
  58   1.0000      -0.557083       -15.1590
  59   1.0000      -0.546912       -14.8822
  60   1.0000      -0.545265       -14.8374
  61   1.0000      -0.539803       -14.6888
  62   1.0000      -0.531727       -14.4690
  63   1.0000      -0.526749       -14.3336
  64   1.0000      -0.521175       -14.1819
  65   1.0000      -0.512135       -13.9359
  66   1.0000      -0.485695       -13.2164
  67   1.0000      -0.465009       -12.6535
  68   1.0000      -0.464658       -12.6440
  69   1.0000      -0.459037       -12.4910
  70   1.0000      -0.447730       -12.1834
  71   1.0000      -0.444228       -12.0881
  72   1.0000      -0.441868       -12.0238
  73   1.0000      -0.439625       -11.9628
  74   1.0000      -0.436518       -11.8783
  75   1.0000      -0.432930       -11.7806
  76   1.0000      -0.432658       -11.7732
  77   1.0000      -0.429632       -11.6909
  78   1.0000      -0.426673       -11.6104
  79   1.0000      -0.423507       -11.5242
  80   1.0000      -0.417717       -11.3666
  81   1.0000      -0.415969       -11.3191
  82   1.0000      -0.409579       -11.1452
  83   1.0000      -0.405489       -11.0339
  84   1.0000      -0.404038       -10.9944
  85   1.0000      -0.403903       -10.9908
  86   1.0000      -0.398278       -10.8377
  87   1.0000      -0.393977       -10.7207
  88   1.0000      -0.392112       -10.6699
  89   1.0000      -0.389560       -10.6005
  90   1.0000      -0.388031       -10.5589
  91   1.0000      -0.385267       -10.4836
  92   1.0000      -0.382255       -10.4017
  93   1.0000      -0.382099       -10.3974
  94   1.0000      -0.374894       -10.2014
  95   1.0000      -0.372264       -10.1298
  96   1.0000      -0.365691        -9.9510
  97   1.0000      -0.355065        -9.6618
  98   1.0000      -0.336747        -9.1634
  99   1.0000      -0.331146        -9.0110
 100   1.0000      -0.299236        -8.1426
 101   1.0000      -0.264161        -7.1882
 102   1.0000      -0.241270        -6.5653
 103   1.0000      -0.227131        -6.1805
 104   1.0000      -0.221524        -6.0280
 105   1.0000      -0.066203        -1.8015
 106   0.0000       0.016780         0.4566
 107   0.0000       0.041747         1.1360
 108   0.0000       0.056387         1.5344
 109   0.0000       0.070283         1.9125
 110   0.0000       0.088206         2.4002

                 SPIN DOWN ORBITALS
  NO   OCC          E(Eh)            E(eV)
   0   1.0000     -24.707357      -672.3214
   1   1.0000     -24.707247      -672.3184
   2   1.0000     -24.698130      -672.0703
   3   1.0000     -24.688814      -671.8168
   4   1.0000     -24.688603      -671.8110
   5   1.0000     -24.685924      -671.7381
   6   1.0000     -24.683109      -671.6615
   7   1.0000     -24.680335      -671.5861
   8   1.0000     -24.679032      -671.5506
   9   1.0000     -24.674264      -671.4209
  10   1.0000     -24.672945      -671.3850
  11   1.0000     -24.672851      -671.3824
  12   1.0000     -24.671857      -671.3553
  13   1.0000     -24.671419      -671.3435
  14   1.0000     -24.670282      -671.3125
  15   1.0000     -19.066720      -518.8318
  16   1.0000     -19.049707      -518.3689
  17   1.0000     -19.045259      -518.2478
  18   1.0000     -10.404135      -283.1109
  19   1.0000     -10.331582      -281.1366
  20   1.0000     -10.326896      -281.0091
  21   1.0000     -10.321374      -280.8589
  22   1.0000     -10.314433      -280.6700
  23   1.0000     -10.311025      -280.5773
  24   1.0000     -10.307990      -280.4947
  25   1.0000     -10.230283      -278.3802
  26   1.0000      -1.326844       -36.1053
  27   1.0000      -1.279393       -34.8140
  28   1.0000      -1.271490       -34.5990
  29   1.0000      -1.259794       -34.2807
  30   1.0000      -1.252759       -34.0893
  31   1.0000      -1.248770       -33.9808
  32   1.0000      -1.242533       -33.8110
  33   1.0000      -1.238271       -33.6951
  34   1.0000      -1.229023       -33.4434
  35   1.0000      -1.217208       -33.1219
  36   1.0000      -1.215628       -33.0789
  37   1.0000      -1.205473       -32.8026
  38   1.0000      -1.198712       -32.6186
  39   1.0000      -1.196022       -32.5454
  40   1.0000      -1.191147       -32.4128
  41   1.0000      -1.026432       -27.9306
  42   1.0000      -0.967703       -26.3325
  43   1.0000      -0.939450       -25.5637
  44   1.0000      -0.779589       -21.2137
  45   1.0000      -0.774701       -21.0807
  46   1.0000      -0.743879       -20.2420
  47   1.0000      -0.714147       -19.4329
  48   1.0000      -0.677717       -18.4416
  49   1.0000      -0.647227       -17.6120
  50   1.0000      -0.622464       -16.9381
  51   1.0000      -0.595508       -16.2046
  52   1.0000      -0.591589       -16.0980
  53   1.0000      -0.588979       -16.0269
  54   1.0000      -0.577613       -15.7176
  55   1.0000      -0.569716       -15.5028
  56   1.0000      -0.568657       -15.4739
  57   1.0000      -0.558509       -15.1978
  58   1.0000      -0.552513       -15.0347
  59   1.0000      -0.545440       -14.8422
  60   1.0000      -0.541140       -14.7252
  61   1.0000      -0.537861       -14.6359
  62   1.0000      -0.530692       -14.4409
  63   1.0000      -0.521944       -14.2028
  64   1.0000      -0.518257       -14.1025
  65   1.0000      -0.511202       -13.9105
  66   1.0000      -0.485592       -13.2136
  67   1.0000      -0.464244       -12.6327
  68   1.0000      -0.462914       -12.5965
  69   1.0000      -0.458425       -12.4744
  70   1.0000      -0.447194       -12.1688
  71   1.0000      -0.443588       -12.0707
  72   1.0000      -0.441399       -12.0111
  73   1.0000      -0.439166       -11.9503
  74   1.0000      -0.435674       -11.8553
  75   1.0000      -0.432311       -11.7638
  76   1.0000      -0.431679       -11.7466
  77   1.0000      -0.428801       -11.6683
  78   1.0000      -0.425659       -11.5828
  79   1.0000      -0.422828       -11.5057
  80   1.0000      -0.416650       -11.3376
  81   1.0000      -0.414876       -11.2893
  82   1.0000      -0.408893       -11.1265
  83   1.0000      -0.404339       -11.0026
  84   1.0000      -0.403566       -10.9816
  85   1.0000      -0.402938       -10.9645
  86   1.0000      -0.397175       -10.8077
  87   1.0000      -0.392640       -10.6843
  88   1.0000      -0.391582       -10.6555
  89   1.0000      -0.388960       -10.5841
  90   1.0000      -0.386397       -10.5144
  91   1.0000      -0.381732       -10.3875
  92   1.0000      -0.379792       -10.3347
  93   1.0000      -0.379305       -10.3214
  94   1.0000      -0.370858       -10.0915
  95   1.0000      -0.370294       -10.0762
  96   1.0000      -0.358065        -9.7435
  97   1.0000      -0.349220        -9.5028
  98   1.0000      -0.336496        -9.1565
  99   1.0000      -0.326732        -8.8908
 100   1.0000      -0.296588        -8.0706
 101   1.0000      -0.264141        -7.1876
 102   1.0000      -0.239938        -6.5290
 103   1.0000      -0.226430        -6.1615
 104   1.0000      -0.220688        -6.0052
 105   0.0000      -0.010300        -0.2803
 106   0.0000       0.028213         0.7677
 107   0.0000       0.048514         1.3201
 108   0.0000       0.063689         1.7331
 109   0.0000       0.081227         2.2103

MULLIKEN ATOMIC CHARGES AND SPIN POPULATIONS
--------------------------------------------
   0 C :    0.442380    0.071510
   1 C :    0.289036    0.129592
   2 C :    0.218243    0.237129
   3 C :    0.239891    0.245807
   4 C :    0.275186    0.149706
   5 C :    0.259356    0.068313
   6 C :    0.342590    0.030016
   7 C :    0.257608    0.011882
   8 F :   -0.179638   -0.000948
   9 F :   -0.179770   -0.000978
  10 F :   -0.190160    0.015025
  11 F :   -0.209838    0.002953
  12 F :   -0.209206    0.002941
  13 F :   -0.232395    0.004519
  14 F :   -0.229501    0.004047
  15 F :   -0.234306    0.003759
  16 F :   -0.229137    0.003234
  17 F :   -0.218557    0.001097
  18 F :   -0.217419    0.001486
  19 F :   -0.211509    0.000469
  20 F :   -0.204113    0.001080
  21 F :   -0.222422    0.000523
  22 F :   -0.219791    0.000715
  23 O :   -0.511077    0.009189
  24 O :   -0.568676    0.006960
  25 O :   -0.751820   -0.000030
  26 H :    0.332234    0.000016
  27 H :    0.362809   -0.000015
Sum of atomic charges         :   -2.0000000

LOEWDIN ATOMIC CHARGES AND SPIN POPULATIONS
-------------------------------------------
   0 C :   -0.669063    0.061232
   1 C :   -0.493714    0.138497
   2 C :   -0.485406    0.209505
   3 C :   -0.486062    0.209132
   4 C :   -0.482484    0.137832
   5 C :   -0.474168    0.068552
   6 C :   -0.458960    0.033453
   7 C :   -0.675545    0.014651
   8 F :    0.202084    0.000998
   9 F :    0.202021    0.000960
  10 F :    0.163233    0.023323
  11 F :    0.163549    0.007641
  12 F :    0.164662    0.007465
  13 F :    0.131560    0.012997
  14 F :    0.137759    0.012156
  15 F :    0.129143    0.012371
  16 F :    0.138573    0.011539
  17 F :    0.158544    0.006462
  18 F :    0.158873    0.006921
  19 F :    0.178195    0.002263
  20 F :    0.182828    0.003099
  21 F :    0.154632    0.001643
  22 F :    0.156656    0.001847
  23 O :   -0.045627    0.008616
  24 O :   -0.066788    0.006889
  25 O :   -0.373529   -0.000016
  26 H :    0.151568    0.000008
  27 H :    0.137467   -0.000037

  Mayer bond orders larger than 0.100000
B(  0-C ,  1-C ) :   0.9457 B(  0-C ,  8-F ) :   1.1231 B(  0-C ,  9-F ) :   1.1227
B(  0-C , 10-F ) :   1.0758 B(  1-C ,  2-C ) :   0.9173 B(  1-C , 11-F ) :   1.0281
B(  1-C , 12-F ) :   1.0282 B(  2-C ,  3-C ) :   0.8954 B(  2-C , 13-F ) :   0.9909
B(  2-C , 14-F ) :   0.9953 B(  3-C ,  4-C ) :   0.8950 B(  3-C , 15-F ) :   0.9828
B(  3-C , 16-F ) :   0.9947 B(  4-C ,  5-C ) :   0.8766 B(  4-C , 17-F ) :   1.0212
B(  4-C , 18-F ) :   1.0229 B(  5-C ,  6-C ) :   0.8946 B(  5-C , 19-F ) :   1.0426
B(  5-C , 20-F ) :   1.0580 B(  6-C ,  7-C ) :   0.8651 B(  6-C , 21-F ) :   1.0177
B(  6-C , 22-F ) :   1.0400 B(  7-C , 23-O ) :   1.8785 B(  7-C , 24-O ) :   1.6555
B( 24-O , 27-H ) :   0.1152 B( 25-O , 26-H ) :   0.9014 B( 25-O , 27-H ) :   0.8043

Dispersion correction           -0.009000283
FINAL SINGLE POINT ENERGY     -2029.491147097643

DIPOLE MOMENT
-------------

Method             : SCF
Type of density    : Electron Density
Multiplicity       :   2
Irrep              :   0
Energy             : -2029.4821468148018084 Eh
Relativity type    :
Basis              : AO
                                X                 Y                 Z
Electronic contribution:      8.567422096      28.137013654       5.931975958
Nuclear contribution   :     -7.874062207     -21.655304478      -5.610036942
                        -----------------------------------------
Total Dipole Moment    :      0.693359889       6.481709176       0.321939016
                        -----------------------------------------
Magnitude (a.u.)       :      6.526633628
Magnitude (Debye)      :     16.589384302

Rotational constants in cm-1:             0.017194             0.003149             0.003033
Rotational constants in MHz :           515.458186            94.416384            90.922908

                             ****ORCA TERMINATED NORMALLY****
TOTAL RUN TIME: 0 days 0 hours 55 minutes 33 seconds 595 msec
