                         Program Version 6.0.1  -  RELEASE   -
|  1> !TPSSh def2-TZVP opt d3 TightSCF SlowConv defgrid2
|  2>
|  3> %pal
|  4> nprocs 20
|  5> end
|  6>
|  7> %scf
|  8> MaxIter 1500
|  9> end
| 10>
| 11> %maxcore 8000
| 12>
| 13> !CPCM
| 14> %cpcm smd true
| 15> SMDsolvent "ACETONITRILE"
| 16> end
| 17>
| 18> * xyz 0 2
| 19> 6        4.790427000     -0.033865800     -0.529943200
| 20> 8        5.449345000     -1.206924000     -0.894594600
| 21> 8        4.978223000      1.323071000     -0.737377200
| 22> 6        3.506687600     -0.338741600      0.376153800
| 23> 6        2.222300000      0.400524800     -0.110681600
| 24> 6        0.900506800     -0.386389800      0.175703000
| 25> 6       -0.395261200      0.487294000      0.065549000
| 26> 6       -1.705693600     -0.364773800     -0.068373600
| 27> 6       -3.005136200      0.445344800      0.258164000
| 28> 6       -4.319880200     -0.214526000     -0.270540800
| 29> 9        3.211587400     -1.692050400      0.412735200
| 30> 9        3.741061800      0.055285800      1.689948800
| 31> 9        2.125696800      1.616867800      0.483236600
| 32> 9        2.314152400      0.589704000     -1.455769200
| 33> 9        0.794028800     -1.413561400     -0.700839000
| 34> 9        0.958350600     -0.884509000      1.435093400
| 35> 9       -0.498373400      1.260265600      1.173340200
| 36> 9       -0.299075000      1.289512600     -1.020910800
| 37> 9       -1.792381400     -0.831391600     -1.336863600
| 38> 9       -2.918792200      1.679227200     -0.295171200
| 39> 9       -3.119771000      0.573779800      1.598579800
| 40> 9       -4.383115600     -1.504377600      0.089127600
| 41> 9       -5.365669800      0.430528600      0.260394200
| 42> 9       -4.396020400     -0.128550600     -1.602941800
| 43> 1        5.903122371     -2.014774547     -1.145719253
| 44> *
| 45>
| 46>                          ****END OF INPUT****
 Total Charge           Charge          ....    0
 Multiplicity           Mult            ....    2
 Number of Electrons    NEL             ....  191
Dispersion correction           -0.029179687
FINAL SINGLE POINT ENERGY     -1854.294445574331
Dispersion correction             ... done (  0.1 sec)
Dispersion correction           -0.029320243
FINAL SINGLE POINT ENERGY     -1854.344932764302
Dispersion correction             ... done (  0.0 sec)
Dispersion correction           -0.029415328
FINAL SINGLE POINT ENERGY     -1854.355470535395
Dispersion correction             ... done (  0.0 sec)
FINAL SINGLE POINT ENERGY     -1854.361916655120
FINAL SINGLE POINT ENERGY     -1854.362746046054
FINAL SINGLE POINT ENERGY     -1854.365858304174
FINAL SINGLE POINT ENERGY     -1854.367780168146
FINAL SINGLE POINT ENERGY     -1854.374835725491
FINAL SINGLE POINT ENERGY     -1854.382910013296
FINAL SINGLE POINT ENERGY     -1854.385585489938
FINAL SINGLE POINT ENERGY     -1854.409324981933
FINAL SINGLE POINT ENERGY     -1854.409403852417
FINAL SINGLE POINT ENERGY     -1854.409424977334
FINAL SINGLE POINT ENERGY     -1854.409436671529
FINAL SINGLE POINT ENERGY     -1854.409442147324
FINAL SINGLE POINT ENERGY     -1854.409445288151
FINAL SINGLE POINT ENERGY     -1854.409447091223
Dispersion correction             ... done (  0.0 sec)
Dispersion correction           -0.029671440
FINAL SINGLE POINT ENERGY     -1854.409448790625
Dispersion correction             ... done (  0.0 sec)
Dispersion correction           -0.029671383
FINAL SINGLE POINT ENERGY     -1854.409449702393
Dispersion correction             ... done (  0.0 sec)
                    ***********************HURRAY********************

CARTESIAN COORDINATES (ANGSTROEM)
---------------------------------
  C      4.673008   -0.291836    0.064955
  O      5.058702   -1.259021   -0.756468
  O      5.306029    0.668564    0.410143
  C      3.219799   -0.527107    0.558023
  C      2.190350    0.247447   -0.325552
  C      0.703525   -0.196795   -0.125596
  C     -0.365232    0.841997   -0.608927
  C     -1.751913    0.272342   -0.689486
  C     -2.851891    0.509509    0.294155
  C     -4.021332   -0.515963    0.194709
  F      2.905288   -1.844726    0.541519
  F      3.125286   -0.080686    1.828921
  F      2.310002    1.564952   -0.051435
  F      2.522047    0.052116   -1.623828
  F      0.505713   -1.344433   -0.812891
  F      0.478253   -0.439126    1.184332
  F     -0.366490    1.889886    0.249499
  F      0.008814    1.280421   -1.840563
  F     -2.055595   -0.364050   -1.809320
  F     -3.401853    1.753747    0.145244
  F     -2.358098    0.446748    1.557736
  F     -3.552614   -1.765679    0.289932
  F     -4.878520   -0.302677    1.196924
  F     -4.677590   -0.385446   -0.961817
  H      5.970632   -1.073214   -1.061909

 Multiplicity           Mult            ....    2
 Number of Electrons    NEL             ....  191
 Basis Dimension        Dim             ....  750

ORBITAL ENERGIES
----------------
                 SPIN UP ORBITALS
  NO   OCC          E(Eh)            E(eV)
   0   1.0000     -24.676991      -671.4951
   1   1.0000     -24.660008      -671.0329
   2   1.0000     -24.659877      -671.0294
   3   1.0000     -24.659324      -671.0143
   4   1.0000     -24.659300      -671.0137
   5   1.0000     -24.658608      -670.9948
   6   1.0000     -24.658554      -670.9934
   7   1.0000     -24.657933      -670.9765
   8   1.0000     -24.656718      -670.9434
   9   1.0000     -24.655068      -670.8985
  10   1.0000     -24.654010      -670.8697
  11   1.0000     -24.650673      -670.7789
  12   1.0000     -24.649282      -670.7411
  13   1.0000     -24.648654      -670.7240
  14   1.0000     -19.133253      -520.6423
  15   1.0000     -19.079838      -519.1888
  16   1.0000     -10.394062      -282.8368
  17   1.0000     -10.344627      -281.4916
  18   1.0000     -10.342002      -281.4202
  19   1.0000     -10.341229      -281.3992
  20   1.0000     -10.340731      -281.3856
  21   1.0000     -10.332235      -281.1544
  22   1.0000     -10.280937      -279.7585
  23   1.0000     -10.270294      -279.4689
  24   1.0000      -1.320304       -35.9273
  25   1.0000      -1.299331       -35.3566
  26   1.0000      -1.284165       -34.9439
  27   1.0000      -1.276154       -34.7259
  28   1.0000      -1.271944       -34.6114
  29   1.0000      -1.270349       -34.5679
  30   1.0000      -1.267591       -34.4929
  31   1.0000      -1.233057       -33.5532
  32   1.0000      -1.232910       -33.5492
  33   1.0000      -1.230779       -33.4912
  34   1.0000      -1.223912       -33.3043
  35   1.0000      -1.219016       -33.1711
  36   1.0000      -1.214773       -33.0556
  37   1.0000      -1.214243       -33.0412
  38   1.0000      -1.119217       -30.4555
  39   1.0000      -1.035372       -28.1739
  40   1.0000      -0.838546       -22.8180
  41   1.0000      -0.814464       -22.1627
  42   1.0000      -0.787567       -21.4308
  43   1.0000      -0.754772       -20.5384
  44   1.0000      -0.710165       -19.3246
  45   1.0000      -0.677193       -18.4274
  46   1.0000      -0.649900       -17.6847
  47   1.0000      -0.641793       -17.4641
  48   1.0000      -0.617233       -16.7958
  49   1.0000      -0.615738       -16.7551
  50   1.0000      -0.612205       -16.6589
  51   1.0000      -0.605218       -16.4688
  52   1.0000      -0.604466       -16.4484
  53   1.0000      -0.597224       -16.2513
  54   1.0000      -0.584676       -15.9098
  55   1.0000      -0.582035       -15.8380
  56   1.0000      -0.576384       -15.6842
  57   1.0000      -0.570625       -15.5275
  58   1.0000      -0.564945       -15.3729
  59   1.0000      -0.561406       -15.2766
  60   1.0000      -0.552522       -15.0349
  61   1.0000      -0.545779       -14.8514
  62   1.0000      -0.509638       -13.8680
  63   1.0000      -0.497777       -13.5452
  64   1.0000      -0.483596       -13.1593
  65   1.0000      -0.478961       -13.0332
  66   1.0000      -0.476501       -12.9662
  67   1.0000      -0.472554       -12.8588
  68   1.0000      -0.470089       -12.7918
  69   1.0000      -0.469067       -12.7640
  70   1.0000      -0.466379       -12.6908
  71   1.0000      -0.459768       -12.5109
  72   1.0000      -0.457309       -12.4440
  73   1.0000      -0.453250       -12.3336
  74   1.0000      -0.448276       -12.1982
  75   1.0000      -0.445927       -12.1343
  76   1.0000      -0.440733       -11.9930
  77   1.0000      -0.439999       -11.9730
  78   1.0000      -0.436147       -11.8682
  79   1.0000      -0.432574       -11.7709
  80   1.0000      -0.431648       -11.7457
  81   1.0000      -0.429889       -11.6979
  82   1.0000      -0.422610       -11.4998
  83   1.0000      -0.420143       -11.4327
  84   1.0000      -0.417667       -11.3653
  85   1.0000      -0.415423       -11.3042
  86   1.0000      -0.413957       -11.2643
  87   1.0000      -0.412090       -11.2135
  88   1.0000      -0.411492       -11.1973
  89   1.0000      -0.405229       -11.0268
  90   1.0000      -0.384803       -10.4710
  91   1.0000      -0.363442        -9.8898
  92   1.0000      -0.340821        -9.2742
  93   1.0000      -0.337785        -9.1916
  94   1.0000      -0.296471        -8.0674
  95   1.0000      -0.262110        -7.1324
  96   0.0000      -0.064030        -1.7423
  97   0.0000      -0.017778        -0.4838
  98   0.0000       0.010265         0.2793
  99   0.0000       0.021869         0.5951
 100   0.0000       0.038499         1.0476

                 SPIN DOWN ORBITALS
  NO   OCC          E(Eh)            E(eV)
   0   1.0000     -24.672477      -671.3722
   1   1.0000     -24.659945      -671.0312
   2   1.0000     -24.659837      -671.0283
   3   1.0000     -24.659312      -671.0140
   4   1.0000     -24.659291      -671.0134
   5   1.0000     -24.658614      -670.9950
   6   1.0000     -24.658530      -670.9927
   7   1.0000     -24.657924      -670.9762
   8   1.0000     -24.656397      -670.9347
   9   1.0000     -24.654375      -670.8796
  10   1.0000     -24.653412      -670.8534
  11   1.0000     -24.650675      -670.7790
  12   1.0000     -24.649278      -670.7410
  13   1.0000     -24.647012      -670.6793
  14   1.0000     -19.133250      -520.6422
  15   1.0000     -19.079825      -519.1884
  16   1.0000     -10.393997      -282.8350
  17   1.0000     -10.345566      -281.5172
  18   1.0000     -10.342757      -281.4407
  19   1.0000     -10.340675      -281.3841
  20   1.0000     -10.340540      -281.3804
  21   1.0000     -10.332186      -281.1531
  22   1.0000     -10.280924      -279.7582
  23   1.0000     -10.254578      -279.0413
  24   1.0000      -1.320087       -35.9214
  25   1.0000      -1.298887       -35.3445
  26   1.0000      -1.282722       -34.9046
  27   1.0000      -1.274620       -34.6842
  28   1.0000      -1.271021       -34.5863
  29   1.0000      -1.269560       -34.5465
  30   1.0000      -1.260991       -34.3133
  31   1.0000      -1.232786       -33.5458
  32   1.0000      -1.232694       -33.5433
  33   1.0000      -1.230684       -33.4886
  34   1.0000      -1.223514       -33.2935
  35   1.0000      -1.218278       -33.1510
  36   1.0000      -1.214764       -33.0554
  37   1.0000      -1.211798       -32.9747
  38   1.0000      -1.119203       -30.4551
  39   1.0000      -1.035353       -28.1734
  40   1.0000      -0.826525       -22.4909
  41   1.0000      -0.810620       -22.0581
  42   1.0000      -0.786634       -21.4054
  43   1.0000      -0.749835       -20.4041
  44   1.0000      -0.706159       -19.2156
  45   1.0000      -0.675777       -18.3888
  46   1.0000      -0.645954       -17.5773
  47   1.0000      -0.641606       -17.4590
  48   1.0000      -0.615238       -16.7415
  49   1.0000      -0.613950       -16.7064
  50   1.0000      -0.609299       -16.5799
  51   1.0000      -0.604524       -16.4499
  52   1.0000      -0.603820       -16.4308
  53   1.0000      -0.596630       -16.2351
  54   1.0000      -0.583471       -15.8771
  55   1.0000      -0.579882       -15.7794
  56   1.0000      -0.574905       -15.6440
  57   1.0000      -0.568496       -15.4696
  58   1.0000      -0.561572       -15.2811
  59   1.0000      -0.560156       -15.2426
  60   1.0000      -0.550964       -14.9925
  61   1.0000      -0.545584       -14.8461
  62   1.0000      -0.497763       -13.5448
  63   1.0000      -0.483105       -13.1459
  64   1.0000      -0.482046       -13.1171
  65   1.0000      -0.478685       -13.0257
  66   1.0000      -0.475054       -12.9269
  67   1.0000      -0.471534       -12.8311
  68   1.0000      -0.469321       -12.7709
  69   1.0000      -0.467653       -12.7255
  70   1.0000      -0.466119       -12.6837
  71   1.0000      -0.458771       -12.4838
  72   1.0000      -0.455951       -12.4070
  73   1.0000      -0.452497       -12.3131
  74   1.0000      -0.447421       -12.1750
  75   1.0000      -0.444649       -12.0995
  76   1.0000      -0.439977       -11.9724
  77   1.0000      -0.438219       -11.9245
  78   1.0000      -0.434686       -11.8284
  79   1.0000      -0.431159       -11.7324
  80   1.0000      -0.431039       -11.7292
  81   1.0000      -0.428916       -11.6714
  82   1.0000      -0.422181       -11.4881
  83   1.0000      -0.418717       -11.3939
  84   1.0000      -0.417185       -11.3522
  85   1.0000      -0.414894       -11.2898
  86   1.0000      -0.413327       -11.2472
  87   1.0000      -0.411339       -11.1931
  88   1.0000      -0.410714       -11.1761
  89   1.0000      -0.404567       -11.0088
  90   1.0000      -0.383143       -10.4259
  91   1.0000      -0.361624        -9.8403
  92   1.0000      -0.340479        -9.2649
  93   1.0000      -0.336276        -9.1505
  94   1.0000      -0.296072        -8.0565
  95   0.0000      -0.138674        -3.7735
  96   0.0000      -0.062892        -1.7114
  97   0.0000      -0.013251        -0.3606
  98   0.0000       0.014904         0.4056
  99   0.0000       0.024773         0.6741

MULLIKEN ATOMIC CHARGES AND SPIN POPULATIONS
--------------------------------------------
   0 C :    0.224394    0.000511
   1 O :   -0.338154    0.000077
   2 O :   -0.288847    0.000482
   3 C :    0.374333    0.002015
   4 C :    0.265907    0.005206
   5 C :    0.275983    0.027551
   6 C :    0.345048   -0.022346
   7 C :    0.122202    0.848865
   8 C :    0.314219   -0.004733
   9 C :    0.410259   -0.004231
  10 F :   -0.159335   -0.000013
  11 F :   -0.155464    0.000102
  12 F :   -0.152627   -0.000166
  13 F :   -0.155794    0.000184
  14 F :   -0.154806   -0.000106
  15 F :   -0.154324   -0.000314
  16 F :   -0.151993    0.005074
  17 F :   -0.154742    0.012930
  18 F :   -0.123736    0.086390
  19 F :   -0.160512    0.031037
  20 F :   -0.153918    0.009741
  21 F :   -0.139615    0.000360
  22 F :   -0.133885    0.000083
  23 F :   -0.136922    0.001232
  24 H :    0.382330    0.000069
Sum of atomic charges         :   -0.0000000

LOEWDIN ATOMIC CHARGES AND SPIN POPULATIONS
-------------------------------------------
   0 C :   -0.491272    0.000503
   1 O :    0.156889    0.000083
   2 O :    0.135431    0.000414
   3 C :   -0.452253    0.001841
   4 C :   -0.454857    0.004977
   5 C :   -0.454470    0.022203
   6 C :   -0.478113    0.060854
   7 C :   -0.159031    0.660905
   8 C :   -0.478662    0.062591
   9 C :   -0.662612    0.001862
  10 F :    0.210209   -0.000041
  11 F :    0.215885    0.000127
  12 F :    0.225411   -0.000111
  13 F :    0.220691    0.000277
  14 F :    0.223570    0.000911
  15 F :    0.225618    0.000582
  16 F :    0.221263    0.006407
  17 F :    0.212948    0.013772
  18 F :    0.268060    0.110480
  19 F :    0.192520    0.034895
  20 F :    0.212250    0.013606
  21 F :    0.224492    0.001061
  22 F :    0.226789    0.000236
  23 F :    0.225566    0.001532
  24 H :    0.233677    0.000034

  Mayer bond orders larger than 0.100000
B(  0-C ,  1-O ) :   1.3133 B(  0-C ,  2-O ) :   2.0716 B(  0-C ,  3-C ) :   0.9070
B(  1-O , 24-H ) :   0.8195 B(  3-C ,  4-C ) :   0.9549 B(  3-C , 10-F ) :   1.1002
B(  3-C , 11-F ) :   1.1180 B(  4-C ,  5-C ) :   0.9419 B(  4-C , 12-F ) :   1.0958
B(  4-C , 13-F ) :   1.0865 B(  5-C ,  6-C ) :   0.9419 B(  5-C , 14-F ) :   1.0907
B(  5-C , 15-F ) :   1.0940 B(  6-C ,  7-C ) :   1.0301 B(  6-C , 16-F ) :   1.1028
B(  6-C , 17-F ) :   1.0851 B(  7-C ,  8-C ) :   1.0397 B(  7-C , 18-F ) :   1.1480
B(  8-C ,  9-C ) :   0.9670 B(  8-C , 19-F ) :   1.0862 B(  8-C , 20-F ) :   1.0847
B(  9-C , 21-F ) :   1.1604 B(  9-C , 22-F ) :   1.1644 B(  9-C , 23-F ) :   1.1624

Dispersion correction           -0.029671595
FINAL SINGLE POINT ENERGY     -1854.409450091849

DIPOLE MOMENT
-------------

Method             : SCF
Type of density    : Electron Density
Multiplicity       :   2
Irrep              :   0
Energy             : -1854.3797784966052404 Eh
Relativity type    :
Basis              : AO
                                X                 Y                 Z
Electronic contribution:    -14.204711689       0.642614824       0.517737683
Nuclear contribution   :     14.927401337      -1.372606803      -1.398051979
                        -----------------------------------------
Total Dipole Moment    :      0.722689648      -0.729991978      -0.880314296
                        -----------------------------------------
Magnitude (a.u.)       :      1.352819972
Magnitude (Debye)      :      3.438595099

Rotational constants in cm-1:             0.020123             0.004045             0.004001
Rotational constants in MHz :           603.258643           121.268821           119.936814

                             ****ORCA TERMINATED NORMALLY****
TOTAL RUN TIME: 0 days 1 hours 29 minutes 57 seconds 181 msec
