                         Program Version 6.0.1  -  RELEASE   -
|  1> !r2scanh def2-TZVP freq d3 TightSCF SlowConv defgrid2
|  2>
|  3> %pal
|  4> nprocs 20
|  5> end
|  6>
|  7> %scf
|  8> MaxIter 1500
|  9> end
| 10>
| 11> %maxcore 8000
| 12>
| 13> !CPCM
| 14> %cpcm smd true
| 15> SMDsolvent "ACETONITRILE"
| 16> end
| 17>
| 18> * xyz -1 2
| 19> 6        4.246079000      0.321972000     -1.086065000
| 20> 8        4.730902000     -0.540938000     -1.824366000
| 21> 8        4.282903000      1.559911000     -1.122744000
| 22> 6        3.416878000     -0.224063000      0.134531000
| 23> 6        1.921449000      0.151211000      0.040923000
| 24> 6        0.945355000     -0.698650000      0.901890000
| 25> 6       -0.425018000     -0.102929000      0.992377000
| 26> 6       -1.631300000     -0.599856000      0.272005000
| 27> 6       -2.761096000      0.463155000      0.204617000
| 28> 6       -3.906614000      0.133398000     -0.789842000
| 29> 9        3.492274000     -1.576323000      0.247076000
| 30> 9        3.900280000      0.284891000      1.302081000
| 31> 9        1.750121000      1.434985000      0.414946000
| 32> 9        1.518591000      0.028758000     -1.243588000
| 33> 9        0.845294000     -1.935666000      0.375232000
| 34> 9        1.462755000     -0.794531000      2.148463000
| 35> 9       -0.604012000      0.811518000      1.924193000
| 36> 9       -2.145151000     -1.707571000      0.869953000
| 37> 9       -1.293732000     -0.953123000     -0.986797000
| 38> 9       -2.233627000      1.639597000     -0.172351000
| 39> 9       -3.305224000      0.597152000      1.423044000
| 40> 9       -4.394654000     -1.081148000     -0.569000000
| 41> 9       -4.879963000      1.022637000     -0.618289000
| 42> 9       -3.482009000      0.209653000     -2.043836000
| 43> *
| 44>
| 45>                          ****END OF INPUT****

CARTESIAN COORDINATES (ANGSTROEM)
---------------------------------
  C      4.246079    0.321972   -1.086065
  O      4.730902   -0.540938   -1.824366
  O      4.282903    1.559911   -1.122744
  C      3.416878   -0.224063    0.134531
  C      1.921449    0.151211    0.040923
  C      0.945355   -0.698650    0.901890
  C     -0.425018   -0.102929    0.992377
  C     -1.631300   -0.599856    0.272005
  C     -2.761096    0.463155    0.204617
  C     -3.906614    0.133398   -0.789842
  F      3.492274   -1.576323    0.247076
  F      3.900280    0.284891    1.302081
  F      1.750121    1.434985    0.414946
  F      1.518591    0.028758   -1.243588
  F      0.845294   -1.935666    0.375232
  F      1.462755   -0.794531    2.148463
  F     -0.604012    0.811518    1.924193
  F     -2.145151   -1.707571    0.869953
  F     -1.293732   -0.953123   -0.986797
  F     -2.233627    1.639597   -0.172351
  F     -3.305224    0.597152    1.423044
  F     -4.394654   -1.081148   -0.569000
  F     -4.879963    1.022637   -0.618289
  F     -3.482009    0.209653   -2.043836

 Total Charge           Charge          ....   -1
 Multiplicity           Mult            ....    2
 Number of Electrons    NEL             ....  191
 Basis Dimension        Dim             ....  744

ORBITAL ENERGIES
----------------
                 SPIN UP ORBITALS
  NO   OCC          E(Eh)            E(eV)
   0   1.0000     -24.740773      -673.2307
   1   1.0000     -24.730826      -672.9600
   2   1.0000     -24.729665      -672.9284
   3   1.0000     -24.729077      -672.9124
   4   1.0000     -24.728778      -672.9043
   5   1.0000     -24.728484      -672.8963
   6   1.0000     -24.723798      -672.7688
   7   1.0000     -24.717747      -672.6041
   8   1.0000     -24.716769      -672.5775
   9   1.0000     -24.715135      -672.5330
  10   1.0000     -24.709665      -672.3842
  11   1.0000     -24.708735      -672.3589
  12   1.0000     -24.685007      -671.7132
  13   1.0000     -24.684534      -671.7003
  14   1.0000     -19.049351      -518.3592
  15   1.0000     -19.047292      -518.3032
  16   1.0000     -10.438417      -284.0438
  17   1.0000     -10.382280      -282.5162
  18   1.0000     -10.381476      -282.4943
  19   1.0000     -10.372236      -282.2429
  20   1.0000     -10.354892      -281.7709
  21   1.0000     -10.321147      -280.8527
  22   1.0000     -10.304394      -280.3968
  23   1.0000     -10.233046      -278.4553
  24   1.0000      -1.359685       -36.9989
  25   1.0000      -1.323858       -36.0240
  26   1.0000      -1.314331       -35.7648
  27   1.0000      -1.305840       -35.5337
  28   1.0000      -1.297521       -35.3073
  29   1.0000      -1.292056       -35.1586
  30   1.0000      -1.270035       -34.5594
  31   1.0000      -1.268230       -34.5103
  32   1.0000      -1.264646       -34.4128
  33   1.0000      -1.257878       -34.2286
  34   1.0000      -1.248353       -33.9694
  35   1.0000      -1.246504       -33.9191
  36   1.0000      -1.236140       -33.6371
  37   1.0000      -1.209529       -32.9129
  38   1.0000      -1.028785       -27.9947
  39   1.0000      -0.944447       -25.6997
  40   1.0000      -0.853466       -23.2240
  41   1.0000      -0.820789       -22.3348
  42   1.0000      -0.789904       -21.4944
  43   1.0000      -0.750924       -20.4337
  44   1.0000      -0.704114       -19.1599
  45   1.0000      -0.677681       -18.4406
  46   1.0000      -0.654249       -17.8030
  47   1.0000      -0.636468       -17.3192
  48   1.0000      -0.629655       -17.1338
  49   1.0000      -0.625712       -17.0265
  50   1.0000      -0.608968       -16.5709
  51   1.0000      -0.606261       -16.4972
  52   1.0000      -0.602935       -16.4067
  53   1.0000      -0.597062       -16.2469
  54   1.0000      -0.594234       -16.1699
  55   1.0000      -0.582584       -15.8529
  56   1.0000      -0.573762       -15.6129
  57   1.0000      -0.564483       -15.3604
  58   1.0000      -0.562627       -15.3099
  59   1.0000      -0.555469       -15.1151
  60   1.0000      -0.538184       -14.6447
  61   1.0000      -0.519488       -14.1360
  62   1.0000      -0.500056       -13.6072
  63   1.0000      -0.492612       -13.4047
  64   1.0000      -0.487650       -13.2696
  65   1.0000      -0.481881       -13.1127
  66   1.0000      -0.473257       -12.8780
  67   1.0000      -0.472597       -12.8600
  68   1.0000      -0.468459       -12.7474
  69   1.0000      -0.463674       -12.6172
  70   1.0000      -0.461952       -12.5703
  71   1.0000      -0.459217       -12.4959
  72   1.0000      -0.450867       -12.2687
  73   1.0000      -0.448252       -12.1976
  74   1.0000      -0.447545       -12.1783
  75   1.0000      -0.443993       -12.0817
  76   1.0000      -0.440668       -11.9912
  77   1.0000      -0.435188       -11.8421
  78   1.0000      -0.432000       -11.7553
  79   1.0000      -0.428108       -11.6494
  80   1.0000      -0.426205       -11.5976
  81   1.0000      -0.424017       -11.5381
  82   1.0000      -0.419691       -11.4204
  83   1.0000      -0.416350       -11.3295
  84   1.0000      -0.412036       -11.2121
  85   1.0000      -0.403102       -10.9690
  86   1.0000      -0.396443       -10.7878
  87   1.0000      -0.388720       -10.5776
  88   1.0000      -0.385587       -10.4924
  89   1.0000      -0.375062       -10.2060
  90   1.0000      -0.356487        -9.7005
  91   1.0000      -0.334147        -9.0926
  92   1.0000      -0.264368        -7.1938
  93   1.0000      -0.241528        -6.5723
  94   1.0000      -0.225042        -6.1237
  95   1.0000      -0.222494        -6.0544
  96   0.0000      -0.007297        -0.1985
  97   0.0000       0.015802         0.4300
  98   0.0000       0.032559         0.8860
  99   0.0000       0.050904         1.3852
 100   0.0000       0.062331         1.6961

                 SPIN DOWN ORBITALS
  NO   OCC          E(Eh)            E(eV)
   0   1.0000     -24.735637      -673.0909
   1   1.0000     -24.730824      -672.9599
   2   1.0000     -24.729665      -672.9284
   3   1.0000     -24.729000      -672.9103
   4   1.0000     -24.728770      -672.9041
   5   1.0000     -24.728402      -672.8940
   6   1.0000     -24.723170      -672.7517
   7   1.0000     -24.716387      -672.5671
   8   1.0000     -24.715734      -672.5493
   9   1.0000     -24.714275      -672.5096
  10   1.0000     -24.709648      -672.3837
  11   1.0000     -24.708701      -672.3579
  12   1.0000     -24.684985      -671.7126
  13   1.0000     -24.684540      -671.7005
  14   1.0000     -19.049209      -518.3553
  15   1.0000     -19.047265      -518.3024
  16   1.0000     -10.438424      -284.0439
  17   1.0000     -10.383161      -282.5402
  18   1.0000     -10.381360      -282.4912
  19   1.0000     -10.373325      -282.2725
  20   1.0000     -10.354241      -281.7532
  21   1.0000     -10.321007      -280.8489
  22   1.0000     -10.287352      -279.9331
  23   1.0000     -10.233014      -278.4545
  24   1.0000      -1.359642       -36.9977
  25   1.0000      -1.322458       -35.9859
  26   1.0000      -1.312920       -35.7264
  27   1.0000      -1.304391       -35.4943
  28   1.0000      -1.293523       -35.1985
  29   1.0000      -1.287432       -35.0328
  30   1.0000      -1.269909       -34.5560
  31   1.0000      -1.268176       -34.5088
  32   1.0000      -1.264621       -34.4121
  33   1.0000      -1.257582       -34.2205
  34   1.0000      -1.247048       -33.9339
  35   1.0000      -1.243969       -33.8501
  36   1.0000      -1.235762       -33.6268
  37   1.0000      -1.209510       -32.9124
  38   1.0000      -1.028647       -27.9909
  39   1.0000      -0.944280       -25.6952
  40   1.0000      -0.839659       -22.8483
  41   1.0000      -0.816862       -22.2279
  42   1.0000      -0.782886       -21.3034
  43   1.0000      -0.749042       -20.3825
  44   1.0000      -0.699721       -19.0404
  45   1.0000      -0.674375       -18.3507
  46   1.0000      -0.650334       -17.6965
  47   1.0000      -0.635861       -17.3027
  48   1.0000      -0.628159       -17.0931
  49   1.0000      -0.625302       -17.0153
  50   1.0000      -0.607520       -16.5315
  51   1.0000      -0.602515       -16.3953
  52   1.0000      -0.599426       -16.3112
  53   1.0000      -0.595800       -16.2126
  54   1.0000      -0.593102       -16.1391
  55   1.0000      -0.581113       -15.8129
  56   1.0000      -0.570761       -15.5312
  57   1.0000      -0.562598       -15.3091
  58   1.0000      -0.560997       -15.2655
  59   1.0000      -0.554128       -15.0786
  60   1.0000      -0.538045       -14.6409
  61   1.0000      -0.500547       -13.6206
  62   1.0000      -0.492197       -13.3934
  63   1.0000      -0.489709       -13.3257
  64   1.0000      -0.486775       -13.2458
  65   1.0000      -0.480867       -13.0850
  66   1.0000      -0.472128       -12.8473
  67   1.0000      -0.470752       -12.8098
  68   1.0000      -0.467484       -12.7209
  69   1.0000      -0.461081       -12.5466
  70   1.0000      -0.460327       -12.5261
  71   1.0000      -0.458429       -12.4745
  72   1.0000      -0.449076       -12.2200
  73   1.0000      -0.447741       -12.1837
  74   1.0000      -0.446863       -12.1598
  75   1.0000      -0.441008       -12.0004
  76   1.0000      -0.438557       -11.9338
  77   1.0000      -0.434847       -11.8328
  78   1.0000      -0.430936       -11.7264
  79   1.0000      -0.426961       -11.6182
  80   1.0000      -0.424487       -11.5509
  81   1.0000      -0.423270       -11.5178
  82   1.0000      -0.419195       -11.4069
  83   1.0000      -0.415954       -11.3187
  84   1.0000      -0.410766       -11.1775
  85   1.0000      -0.401875       -10.9356
  86   1.0000      -0.396325       -10.7845
  87   1.0000      -0.388241       -10.5646
  88   1.0000      -0.384192       -10.4544
  89   1.0000      -0.374927       -10.2023
  90   1.0000      -0.354222        -9.6389
  91   1.0000      -0.331314        -9.0155
  92   1.0000      -0.241422        -6.5694
  93   1.0000      -0.225073        -6.1245
  94   1.0000      -0.222998        -6.0681
  95   0.0000      -0.119774        -3.2592
  96   0.0000      -0.004841        -0.1317
  97   0.0000       0.017828         0.4851
  98   0.0000       0.037428         1.0185
  99   0.0000       0.052395         1.4257

MULLIKEN ATOMIC CHARGES AND SPIN POPULATIONS
--------------------------------------------
   0 C :    0.215344    0.001202
   1 O :   -0.509145    0.004349
   2 O :   -0.523817    0.000903
   3 C :    0.338968    0.004310
   4 C :    0.290332    0.026072
   5 C :    0.381370   -0.033129
   6 C :    0.120556    0.844498
   7 C :    0.331474   -0.001249
   8 C :    0.340369   -0.004176
   9 C :    0.470282    0.000080
  10 F :   -0.208395   -0.000065
  11 F :   -0.215075    0.000500
  12 F :   -0.186087    0.000463
  13 F :   -0.192812    0.000434
  14 F :   -0.176730    0.005948
  15 F :   -0.178079    0.014833
  16 F :   -0.148182    0.090121
  17 F :   -0.177635    0.033657
  18 F :   -0.174027    0.008942
  19 F :   -0.166762    0.000778
  20 F :   -0.164387    0.001371
  21 F :   -0.156421    0.000032
  22 F :   -0.155967    0.000121
  23 F :   -0.155177    0.000007
Sum of atomic charges         :   -1.0000000

LOEWDIN ATOMIC CHARGES AND SPIN POPULATIONS
-------------------------------------------
   0 C :   -0.696048    0.001660
   1 O :   -0.047968    0.003809
   2 O :   -0.055221    0.000812
   3 C :   -0.450857    0.005472
   4 C :   -0.463370    0.021048
   5 C :   -0.488672    0.054309
   6 C :   -0.167111    0.665619
   7 C :   -0.484959    0.060771
   8 C :   -0.472160    0.003005
   9 C :   -0.678426    0.000059
  10 F :    0.170121   -0.000087
  11 F :    0.161338    0.000517
  12 F :    0.212935    0.001141
  13 F :    0.208251    0.000760
  14 F :    0.216094    0.006645
  15 F :    0.208878    0.014923
  16 F :    0.262694    0.107422
  17 F :    0.198063    0.036369
  18 F :    0.218403    0.012156
  19 F :    0.228685    0.001611
  20 F :    0.228462    0.001743
  21 F :    0.231325    0.000071
  22 F :    0.227839    0.000151
  23 F :    0.231705    0.000013

  Mayer bond orders larger than 0.100000
B(  0-C ,  1-O ) :   1.8512 B(  0-C ,  2-O ) :   1.8245 B(  0-C ,  3-C ) :   0.8399
B(  3-C ,  4-C ) :   0.9265 B(  3-C , 10-F ) :   1.0369 B(  3-C , 11-F ) :   1.0258
B(  4-C ,  5-C ) :   0.9202 B(  4-C , 12-F ) :   1.0575 B(  4-C , 13-F ) :   1.0530
B(  5-C ,  6-C ) :   1.0115 B(  5-C , 14-F ) :   1.0750 B(  5-C , 15-F ) :   1.0681
B(  6-C ,  7-C ) :   1.0364 B(  6-C , 16-F ) :   1.1056 B(  7-C ,  8-C ) :   0.9268
B(  7-C , 17-F ) :   1.0647 B(  7-C , 18-F ) :   1.0665 B(  8-C ,  9-C ) :   0.9513
B(  8-C , 19-F ) :   1.0839 B(  8-C , 20-F ) :   1.0851 B(  9-C , 21-F ) :   1.1344
B(  9-C , 22-F ) :   1.1292 B(  9-C , 23-F ) :   1.1428

Dispersion correction           -0.008091658
FINAL SINGLE POINT ENERGY     -1853.116887357763

DIPOLE MOMENT
-------------

Method             : SCF
Type of density    : Electron Density
Multiplicity       :   2
Irrep              :   0
Energy             : -1853.1087956994063006 Eh
Relativity type    :
Basis              : AO
                                X                 Y                 Z
Electronic contribution:    -16.197388848      -1.629589885       4.502981016
Nuclear contribution   :      8.416895830       0.942235897      -2.256964698
                        -----------------------------------------
Total Dipole Moment    :     -7.780493018      -0.687353988       2.246016319
                        -----------------------------------------
Magnitude (a.u.)       :      8.127306837
Magnitude (Debye)      :     20.657972262

VIBRATIONAL FREQUENCIES
-----------------------

Scaling factor for frequencies =  1.000000000  (already applied!)

     0:       0.00 cm**-1
     1:       0.00 cm**-1
     2:       0.00 cm**-1
     3:       0.00 cm**-1
     4:       0.00 cm**-1
     5:       0.00 cm**-1
     6:       8.06 cm**-1
     7:      27.04 cm**-1
     8:      29.14 cm**-1
     9:      36.31 cm**-1
    10:      48.00 cm**-1
    11:      54.12 cm**-1
    12:      77.07 cm**-1
    13:      86.73 cm**-1
    14:     101.71 cm**-1
    15:     123.93 cm**-1
    16:     160.29 cm**-1
    17:     177.32 cm**-1
    18:     188.82 cm**-1
    19:     200.42 cm**-1
    20:     215.30 cm**-1
    21:     228.04 cm**-1
    22:     234.43 cm**-1
    23:     243.11 cm**-1
    24:     259.13 cm**-1
    25:     280.11 cm**-1
    26:     288.78 cm**-1
    27:     311.74 cm**-1
    28:     332.39 cm**-1
    29:     345.88 cm**-1
    30:     359.22 cm**-1
    31:     368.10 cm**-1
    32:     371.20 cm**-1
    33:     375.15 cm**-1
    34:     397.14 cm**-1
    35:     451.59 cm**-1
    36:     469.96 cm**-1
    37:     510.99 cm**-1
    38:     530.28 cm**-1
    39:     541.49 cm**-1
    40:     548.05 cm**-1
    41:     576.48 cm**-1
    42:     596.89 cm**-1
    43:     612.07 cm**-1
    44:     631.96 cm**-1
    45:     674.62 cm**-1
    46:     698.77 cm**-1
    47:     708.16 cm**-1
    48:     734.03 cm**-1
    49:     787.10 cm**-1
    50:     803.18 cm**-1
    51:     878.19 cm**-1
    52:    1016.07 cm**-1
    53:    1062.34 cm**-1
    54:    1091.96 cm**-1
    55:    1105.12 cm**-1
    56:    1126.65 cm**-1
    57:    1130.56 cm**-1
    58:    1136.12 cm**-1
    59:    1154.41 cm**-1
    60:    1163.62 cm**-1
    61:    1176.22 cm**-1
    62:    1188.62 cm**-1
    63:    1208.42 cm**-1
    64:    1242.42 cm**-1
    65:    1255.70 cm**-1
    66:    1270.65 cm**-1
    67:    1327.06 cm**-1
    68:    1358.69 cm**-1
    69:    1383.57 cm**-1
    70:    1424.98 cm**-1
    71:    1757.53 cm**-1

IR SPECTRUM
-----------

 Mode   freq       eps      Int      T**2         TX        TY        TZ
       cm**-1   L/(mol*cm) km/mol    a.u.
----------------------------------------------------------------------------
  6:      8.06   0.000560    2.83  0.021664  ( 0.111036 -0.061994  0.074104)
  7:     27.04   0.000632    3.19  0.007295  (-0.020242 -0.068356 -0.047037)
  8:     29.14   0.000081    0.41  0.000867  (-0.017014  0.023629 -0.004383)
  9:     36.31   0.000344    1.74  0.002952  (-0.038955 -0.001416 -0.037855)
 10:     48.00   0.000063    0.32  0.000407  ( 0.015057  0.006977  0.011489)
 11:     54.12   0.000151    0.76  0.000871  ( 0.004524  0.028578  0.005823)
 12:     77.07   0.000274    1.39  0.001111  (-0.026584  0.014470 -0.013945)
 13:     86.73   0.000175    0.89  0.000631  ( 0.017048 -0.018410  0.001146)
 14:    101.71   0.000431    2.18  0.001322  ( 0.028401  0.007675  0.021365)
 15:    123.93   0.000383    1.94  0.000966  ( 0.026344 -0.014508  0.007818)
 16:    160.29   0.001185    5.99  0.002306  ( 0.046871  0.009276 -0.004842)
 17:    177.32   0.000425    2.15  0.000748  (-0.012138 -0.005552  0.023880)
 18:    188.82   0.000125    0.63  0.000207  (-0.004619  0.004311 -0.012914)
 19:    200.42   0.001567    7.92  0.002440  (-0.022103  0.001002  0.044159)
 20:    215.30   0.001043    5.27  0.001512  (-0.023134 -0.031247  0.000655)
 21:    228.04   0.000132    0.67  0.000181  (-0.006778  0.000385 -0.011615)
 22:    234.43   0.000149    0.75  0.000199  ( 0.002256  0.003787  0.013389)
 23:    243.11   0.000013    0.07  0.000017  ( 0.003041 -0.002797  0.000024)
 24:    259.13   0.000156    0.79  0.000188  ( 0.000047 -0.002348 -0.013503)
 25:    280.11   0.000991    5.01  0.001104  ( 0.030915 -0.002097  0.012010)
 26:    288.78   0.000811    4.10  0.000876  ( 0.023394 -0.018119  0.000863)
 27:    311.74   0.000065    0.33  0.000065  (-0.003897  0.007008 -0.000693)
 28:    332.39   0.000322    1.63  0.000302  ( 0.016496 -0.002194  0.005036)
 29:    345.88   0.000256    1.29  0.000231  (-0.014195  0.000582 -0.005402)
 30:    359.22   0.000290    1.47  0.000252  ( 0.011067 -0.002417 -0.011120)
 31:    368.10   0.000447    2.26  0.000379  (-0.018540 -0.002871 -0.005176)
 32:    371.20   0.000252    1.27  0.000212  (-0.014305 -0.002645  0.000453)
 33:    375.15   0.000358    1.81  0.000298  ( 0.017208  0.001422 -0.000069)
 34:    397.14   0.000283    1.43  0.000223  (-0.011689 -0.008003 -0.004693)
 35:    451.59   0.000715    3.62  0.000494  (-0.018271  0.004354 -0.011896)
 36:    469.96   0.000985    4.98  0.000654  (-0.021255  0.014187 -0.001105)
 37:    510.99   0.001146    5.79  0.000700  (-0.005981  0.025298 -0.004906)
 38:    530.28   0.011781   59.54  0.006933  ( 0.080829 -0.019985  0.000678)
 39:    541.49   0.004427   22.37  0.002551  ( 0.046669  0.000062  0.019320)
 40:    548.05   0.002021   10.21  0.001151  (-0.032612 -0.006298 -0.006907)
 41:    576.48   0.002991   15.11  0.001619  ( 0.013493  0.021428 -0.031270)
 42:    596.89   0.005056   25.55  0.002643  ( 0.041315  0.022220  0.021041)
 43:    612.07   0.000227    1.15  0.000116  (-0.008820  0.003751 -0.004908)
 44:    631.96   0.004644   23.47  0.002293  (-0.042092 -0.021742 -0.006997)
 45:    674.62   0.032792  165.72  0.015169  ( 0.121416  0.007682 -0.019178)
 46:    698.77   0.010133   51.21  0.004525  (-0.065820 -0.000481 -0.013879)
 47:    708.16   0.003108   15.71  0.001370  ( 0.016200  0.009796 -0.031798)
 48:    734.03   0.011091   56.05  0.004715  ( 0.040918 -0.023149  0.050051)
 49:    787.10   0.002016   10.19  0.000799  ( 0.025874 -0.011377 -0.000526)
 50:    803.18   0.020150  101.83  0.007829  ( 0.035314  0.028243 -0.076053)
 51:    878.19   0.008218   41.53  0.002920  ( 0.028055 -0.019523  0.041856)
 52:   1016.07   0.018857   95.30  0.005792  ( 0.034514 -0.043649  0.051915)
 53:   1062.34   0.024253  122.56  0.007124  (-0.064590 -0.053537  0.009284)
 54:   1091.96   0.054870  277.29  0.015681  ( 0.042976  0.098014 -0.065017)
 55:   1105.12   0.045683  230.86  0.012900  ( 0.021091  0.079846  0.077972)
 56:   1126.65   0.006281   31.74  0.001740  ( 0.012877 -0.039528  0.003399)
 57:   1130.56   0.028734  145.21  0.007931  ( 0.028340 -0.050740  0.067479)
 58:   1136.12   0.070880  358.20  0.019469  ( 0.055983  0.025302  0.125278)
 59:   1154.41   0.055257  279.25  0.014937  (-0.007341  0.108205  0.056347)
 60:   1163.62   0.062498  315.84  0.016761  ( 0.025913  0.096205  0.082669)
 61:   1176.22   0.071953  363.62  0.019090  (-0.056088 -0.067949  0.106429)
 62:   1188.62   0.121063  611.80  0.031784  ( 0.073148 -0.148021 -0.067255)
 63:   1208.42   0.084000  424.50  0.021692  (-0.067309 -0.072199  0.109312)
 64:   1242.42   0.001871    9.46  0.000470  (-0.007688 -0.002179 -0.020152)
 65:   1255.70   0.012173   61.51  0.003025  (-0.008825 -0.054261 -0.001731)
 66:   1270.65   0.006734   34.03  0.001654  (-0.001465 -0.017109 -0.036864)
 67:   1327.06   0.023660  119.57  0.005564  ( 0.046772 -0.003165  0.058018)
 68:   1358.69   0.014940   75.50  0.003431  (-0.026457  0.011149 -0.051059)
 69:   1383.57   0.068248  344.90  0.015393  (-0.103399 -0.023255  0.064508)
 70:   1424.98   0.003409   17.23  0.000747  (-0.010685  0.019167  0.016283)
 71:   1757.53   0.159643  806.77  0.028346  (-0.033620  0.156214  0.053035)

--------------------------
THERMOCHEMISTRY AT 298.15K
--------------------------

Temperature         ...   298.15 K
Pressure            ...     1.00 atm
Total Mass          ...   394.06 AMU
Quasi RRHO          ...     True
Cut-Off Frequency   ...     1.00 cm^-1

Throughout the following assumptions are being made:
  (1) The electronic state is orbitally nondegenerate
      but the spin degeneracy is treated
  (2) There are no thermally accessible electronically excited states
  (3) Hindered rotations indicated by low frequency modes are not
      treated as such but are treated as vibrations and this may
      cause some error
  (4) All equations used are the standard statistical mechanics
      equations for an ideal gas
  (5) All vibrations are strictly harmonic

freq.       8.06  E(vib)   ...       0.58
freq.      27.04  E(vib)   ...       0.55
freq.      29.14  E(vib)   ...       0.55
freq.      36.31  E(vib)   ...       0.54
freq.      48.00  E(vib)   ...       0.53
freq.      54.12  E(vib)   ...       0.52
freq.      77.07  E(vib)   ...       0.49
freq.      86.73  E(vib)   ...       0.48
freq.     101.71  E(vib)   ...       0.46
freq.     123.93  E(vib)   ...       0.43
freq.     160.29  E(vib)   ...       0.39
freq.     177.32  E(vib)   ...       0.37
freq.     188.82  E(vib)   ...       0.36
freq.     200.42  E(vib)   ...       0.35
freq.     215.30  E(vib)   ...       0.34
freq.     228.04  E(vib)   ...       0.33
freq.     234.43  E(vib)   ...       0.32
freq.     243.11  E(vib)   ...       0.31
freq.     259.13  E(vib)   ...       0.30
freq.     280.11  E(vib)   ...       0.28
freq.     288.78  E(vib)   ...       0.27
freq.     311.74  E(vib)   ...       0.25
freq.     332.39  E(vib)   ...       0.24
freq.     345.88  E(vib)   ...       0.23
freq.     359.22  E(vib)   ...       0.22
freq.     368.10  E(vib)   ...       0.21
freq.     371.20  E(vib)   ...       0.21
freq.     375.15  E(vib)   ...       0.21
freq.     397.14  E(vib)   ...       0.20
freq.     451.59  E(vib)   ...       0.16
freq.     469.96  E(vib)   ...       0.16
freq.     510.99  E(vib)   ...       0.14
freq.     530.28  E(vib)   ...       0.13
freq.     541.49  E(vib)   ...       0.12
freq.     548.05  E(vib)   ...       0.12
freq.     576.48  E(vib)   ...       0.11
freq.     596.89  E(vib)   ...       0.10
freq.     612.07  E(vib)   ...       0.10
freq.     631.96  E(vib)   ...       0.09
freq.     674.62  E(vib)   ...       0.08
freq.     698.77  E(vib)   ...       0.07
freq.     708.16  E(vib)   ...       0.07
freq.     734.03  E(vib)   ...       0.06
freq.     787.10  E(vib)   ...       0.05
freq.     803.18  E(vib)   ...       0.05
freq.     878.19  E(vib)   ...       0.04
freq.    1016.07  E(vib)   ...       0.02
freq.    1062.34  E(vib)   ...       0.02
freq.    1091.96  E(vib)   ...       0.02
freq.    1105.12  E(vib)   ...       0.02
freq.    1126.65  E(vib)   ...       0.01
freq.    1130.56  E(vib)   ...       0.01
freq.    1136.12  E(vib)   ...       0.01
freq.    1154.41  E(vib)   ...       0.01
freq.    1163.62  E(vib)   ...       0.01
freq.    1176.22  E(vib)   ...       0.01
freq.    1188.62  E(vib)   ...       0.01
freq.    1208.42  E(vib)   ...       0.01
freq.    1242.42  E(vib)   ...       0.01
freq.    1255.70  E(vib)   ...       0.01
freq.    1270.65  E(vib)   ...       0.01
freq.    1327.06  E(vib)   ...       0.01
freq.    1358.69  E(vib)   ...       0.01
freq.    1383.57  E(vib)   ...       0.00
freq.    1424.98  E(vib)   ...       0.00
freq.    1757.53  E(vib)   ...       0.00

------------
INNER ENERGY
------------

The inner energy is: U= E(el) + E(ZPE) + E(vib) + E(rot) + E(trans)
    E(el)   - is the total energy from the electronic structure calculation
              = E(kin-el) + E(nuc-el) + E(el-el) + E(nuc-nuc)
    E(ZPE)  - the the zero temperature vibrational energy from the frequency calculation
    E(vib)  - the the finite temperature correction to E(ZPE) due to population
              of excited vibrational states
    E(rot)  - is the rotational thermal energy
    E(trans)- is the translational thermal energy

Summary of contributions to the inner energy U:
Electronic energy                ...  -1853.11688736 Eh
Zero point energy                ...      0.09400454 Eh      58.99 kcal/mol
Thermal vibrational correction   ...      0.01974311 Eh      12.39 kcal/mol
Thermal rotational correction    ...      0.00141627 Eh       0.89 kcal/mol
Thermal translational correction ...      0.00141627 Eh       0.89 kcal/mol
-----------------------------------------------------------------------
Total thermal energy                  -1853.00030717 Eh

Summary of corrections to the electronic energy:
(perhaps to be used in another calculation)
Total thermal correction                  0.02257565 Eh      14.17 kcal/mol
Non-thermal (ZPE) correction              0.09400454 Eh      58.99 kcal/mol
-----------------------------------------------------------------------
Total correction                          0.11658019 Eh      73.16 kcal/mol

--------
ENTHALPY
--------

The enthalpy is H = U + kB*T
                kB is Boltzmann's constant
Total thermal energy              ...  -1853.00030717 Eh
Thermal Enthalpy correction       ...      0.00094421 Eh       0.59 kcal/mol
-----------------------------------------------------------------------
Total Enthalpy                    ...  -1852.99936296 Eh

Note: Only C1 symmetry has been detected, increase convergence thresholds
      if your molecule has a higher symmetry. Symmetry factor of 1.0 is
      used for the rotational entropy correction.

Note: Rotational entropy computed according to Herzberg
Infrared and Raman Spectra, Chapter V,1, Van Nostrand Reinhold, 1945
Point Group:  C1, Symmetry Number:   1
Rotational constants in cm-1:     0.018322     0.004292     0.004161

Vibrational entropy computed according to the QRRHO of S. Grimme
Chem.Eur.J. 2012 18 9955 using a reference frequency of 100.0 cm-1

-------
ENTROPY
-------

The entropy contributions are T*S = T*(S(el)+S(vib)+S(rot)+S(trans))
     S(el)   - electronic entropy
     S(vib)  - vibrational entropy
     S(rot)  - rotational entropy
     S(trans)- translational entropy
The entropies will be listed as multiplied by the temperature to get
units of energy

Electronic entropy                ...      0.00065446 Eh      0.41 kcal/mol
Vibrational entropy               ...      0.03623614 Eh     22.74 kcal/mol
Rotational entropy                ...      0.01656039 Eh     10.39 kcal/mol
Translational entropy             ...      0.02081341 Eh     13.06 kcal/mol
-----------------------------------------------------------------------

                             ****ORCA TERMINATED NORMALLY****
TOTAL RUN TIME: 0 days 0 hours 23 minutes 45 seconds 426 msec
