                         Program Version 6.0.1  -  RELEASE   -
|  1> !B3LYP def2-TZVP opt d3 TightSCF SlowConv defgrid2
|  2>
|  3> %pal
|  4> nprocs 20
|  5> end
|  6>
|  7> %scf
|  8> MaxIter 1500
|  9> end
| 10>
| 11> %maxcore 8000
| 12>
| 13> !CPCM
| 14> %cpcm smd true
| 15> SMDsolvent "ACETONITRILE"
| 16> end
| 17>
| 18> * xyz -1 1
| 19> 6        6.857280945     27.901753127      3.100719684
| 20> 6        6.154044945     26.704598127      2.411135684
| 21> 6        7.086539945     25.482838127      2.185613684
| 22> 6        6.299616945     24.171731127      1.900070684
| 23> 6        7.185881945     23.070259127      1.248991684
| 24> 6        6.565390945     21.647303127      1.360366684
| 25> 6        7.185681945     20.616666127      0.394672684
| 26> 6        6.843394945     19.121603127      0.784430684
| 27> 9        8.006806945     28.182557127      2.503585684
| 28> 9        7.082780945     27.647576127      4.378925684
| 29> 9        6.067588945     28.966668127      3.018348684
| 30> 9        5.116418945     26.361022127      3.182510684
| 31> 9        5.702795945     27.135986127      1.230360684
| 32> 9        7.887905945     25.777720127      1.156931684
| 33> 9        7.829891945     25.318192127      3.287321684
| 34> 9        5.806494945     23.745652127      3.066652684
| 35> 9        5.287431945     24.474179127      1.076603684
| 36> 9        7.350609945     23.413929127     -0.034316316
| 37> 9        8.377622945     23.098911127      1.865134684
| 38> 9        6.756126945     21.255165127      2.631170684
| 39> 9        5.250981945     21.784657127      1.133608684
| 40> 9        6.706596945     20.903759127     -0.845345316
| 41> 9        8.519170945     20.869305127      0.364163684
| 42> 8        7.813741945     18.363469127      0.789215684
| 43> 8        5.634555945     18.967368127      0.997888684
| 44> 8        2.818390092     18.736599843      1.412612662
| 45> 1        2.716934106     17.791620290      1.243555674
| 46> 1        3.748070901     18.906228277      1.215686974
| 47> *
| 48>
| 49>                          ****END OF INPUT****
 Total Charge           Charge          ....   -1
 Multiplicity           Mult            ....    1
 Number of Electrons    NEL             ....  210
Dispersion correction           -0.046976004
FINAL SINGLE POINT ENERGY     -2029.633683196702
Dispersion correction             ... done (  0.0 sec)
Dispersion correction           -0.046374598
FINAL SINGLE POINT ENERGY     -2029.637301677421
Dispersion correction             ... done (  0.0 sec)
Dispersion correction           -0.046381700
FINAL SINGLE POINT ENERGY     -2029.637715322816
Dispersion correction             ... done (  0.0 sec)
FINAL SINGLE POINT ENERGY     -2029.637826864715
FINAL SINGLE POINT ENERGY     -2029.637910349173
FINAL SINGLE POINT ENERGY     -2029.638029611635
FINAL SINGLE POINT ENERGY     -2029.638181888878
FINAL SINGLE POINT ENERGY     -2029.636923105802
FINAL SINGLE POINT ENERGY     -2029.630275362125
FINAL SINGLE POINT ENERGY     -2029.635285424253
FINAL SINGLE POINT ENERGY     -2029.639834165584
FINAL SINGLE POINT ENERGY     -2029.639836405849
FINAL SINGLE POINT ENERGY     -2029.639838026352
FINAL SINGLE POINT ENERGY     -2029.639838876233
FINAL SINGLE POINT ENERGY     -2029.639839791035
FINAL SINGLE POINT ENERGY     -2029.639840902180
FINAL SINGLE POINT ENERGY     -2029.639842081735
Dispersion correction             ... done (  0.0 sec)
Dispersion correction           -0.047210640
FINAL SINGLE POINT ENERGY     -2029.639843189063
Dispersion correction             ... done (  0.0 sec)
Dispersion correction           -0.047212974
FINAL SINGLE POINT ENERGY     -2029.639844008869
Dispersion correction             ... done (  0.0 sec)
                    ***********************HURRAY********************

CARTESIAN COORDINATES (ANGSTROEM)
---------------------------------
  C      6.886647   27.972150    2.963062
  C      6.116906   26.696167    2.490808
  C      7.044147   25.489399    2.120530
  C      6.286233   24.115682    2.069377
  C      7.066810   23.007812    1.277120
  C      6.585285   21.551276    1.593689
  C      7.016630   20.475962    0.554650
  C      6.908080   19.011070    1.136803
  F      7.853985   28.285659    2.098119
  F      7.423943   27.785901    4.168052
  F      6.026967   28.990445    3.033762
  F      5.279885   26.336129    3.484422
  F      5.390588   27.033476    1.409518
  F      7.597244   25.740414    0.917167
  F      8.028263   25.399591    3.037026
  F      6.087381   23.701585    3.336619
  F      5.086909   24.301075    1.481696
  F      6.909535   23.251543   -0.040666
  F      8.378549   23.107220    1.580283
  F      7.095450   21.203291    2.800702
  F      5.237545   21.562237    1.691890
  F      6.225118   20.612306   -0.549446
  F      8.288616   20.767491    0.162204
  O      7.979656   18.446221    1.362146
  O      5.731397   18.626637    1.301824
  O      3.184827   19.327843    0.484795
  H      2.824612   18.444105    0.345204
  H      4.117543   19.174630    0.749264

 Multiplicity           Mult            ....    1
 Number of Electrons    NEL             ....  210
 Basis Dimension        Dim             ....  818

ORBITAL ENERGIES
----------------

  NO   OCC          E(Eh)            E(eV)
   0   2.0000     -24.744832      -673.3411
   1   2.0000     -24.743705      -673.3105
   2   2.0000     -24.743691      -673.3101
   3   2.0000     -24.743278      -673.2988
   4   2.0000     -24.743159      -673.2956
   5   2.0000     -24.743119      -673.2945
   6   2.0000     -24.742275      -673.2715
   7   2.0000     -24.740790      -673.2311
   8   2.0000     -24.740500      -673.2232
   9   2.0000     -24.735810      -673.0956
  10   2.0000     -24.735281      -673.0812
  11   2.0000     -24.725485      -672.8146
  12   2.0000     -24.725204      -672.8070
  13   2.0000     -24.702264      -672.1828
  14   2.0000     -24.702151      -672.1797
  15   2.0000     -19.086221      -519.3625
  16   2.0000     -19.073612      -519.0194
  17   2.0000     -19.070716      -518.9406
  18   2.0000     -10.461097      -284.6609
  19   2.0000     -10.408232      -283.2224
  20   2.0000     -10.407163      -283.1933
  21   2.0000     -10.405283      -283.1422
  22   2.0000     -10.398747      -282.9643
  23   2.0000     -10.384239      -282.5695
  24   2.0000     -10.349246      -281.6173
  25   2.0000     -10.264763      -279.3184
  26   2.0000      -1.353710       -36.8363
  27   2.0000      -1.330597       -36.2074
  28   2.0000      -1.315719       -35.8025
  29   2.0000      -1.307550       -35.5802
  30   2.0000      -1.304181       -35.4886
  31   2.0000      -1.293717       -35.2038
  32   2.0000      -1.267548       -34.4917
  33   2.0000      -1.267048       -34.4781
  34   2.0000      -1.260736       -34.3064
  35   2.0000      -1.260151       -34.2905
  36   2.0000      -1.253623       -34.1128
  37   2.0000      -1.250129       -34.0177
  38   2.0000      -1.246442       -33.9174
  39   2.0000      -1.235876       -33.6299
  40   2.0000      -1.209612       -32.9152
  41   2.0000      -1.036258       -28.1980
  42   2.0000      -0.971383       -26.4327
  43   2.0000      -0.952094       -25.9078
  44   2.0000      -0.847081       -23.0502
  45   2.0000      -0.825920       -22.4744
  46   2.0000      -0.797215       -21.6933
  47   2.0000      -0.760031       -20.6815
  48   2.0000      -0.718568       -19.5532
  49   2.0000      -0.690171       -18.7805
  50   2.0000      -0.672502       -18.2997
  51   2.0000      -0.651238       -17.7211
  52   2.0000      -0.646328       -17.5875
  53   2.0000      -0.638332       -17.3699
  54   2.0000      -0.630347       -17.1526
  55   2.0000      -0.626444       -17.0464
  56   2.0000      -0.624377       -16.9901
  57   2.0000      -0.611981       -16.6529
  58   2.0000      -0.608945       -16.5702
  59   2.0000      -0.604980       -16.4623
  60   2.0000      -0.597161       -16.2496
  61   2.0000      -0.585902       -15.9432
  62   2.0000      -0.584402       -15.9024
  63   2.0000      -0.577963       -15.7272
  64   2.0000      -0.570159       -15.5148
  65   2.0000      -0.554436       -15.0870
  66   2.0000      -0.517516       -14.0823
  67   2.0000      -0.513906       -13.9841
  68   2.0000      -0.508383       -13.8338
  69   2.0000      -0.505646       -13.7593
  70   2.0000      -0.503363       -13.6972
  71   2.0000      -0.500575       -13.6214
  72   2.0000      -0.497168       -13.5286
  73   2.0000      -0.493287       -13.4230
  74   2.0000      -0.487593       -13.2681
  75   2.0000      -0.483596       -13.1593
  76   2.0000      -0.480822       -13.0838
  77   2.0000      -0.477838       -13.0026
  78   2.0000      -0.471748       -12.8369
  79   2.0000      -0.469945       -12.7879
  80   2.0000      -0.463635       -12.6161
  81   2.0000      -0.461934       -12.5699
  82   2.0000      -0.460185       -12.5223
  83   2.0000      -0.453485       -12.3400
  84   2.0000      -0.452606       -12.3160
  85   2.0000      -0.449377       -12.2282
  86   2.0000      -0.445052       -12.1105
  87   2.0000      -0.444171       -12.0865
  88   2.0000      -0.441392       -12.0109
  89   2.0000      -0.439868       -11.9694
  90   2.0000      -0.435586       -11.8529
  91   2.0000      -0.435092       -11.8394
  92   2.0000      -0.427735       -11.6392
  93   2.0000      -0.419499       -11.4152
  94   2.0000      -0.416625       -11.3369
  95   2.0000      -0.412235       -11.2175
  96   2.0000      -0.403684       -10.9848
  97   2.0000      -0.394744       -10.7415
  98   2.0000      -0.375078       -10.2064
  99   2.0000      -0.353843        -9.6285
 100   2.0000      -0.344194        -9.3660
 101   2.0000      -0.283757        -7.7214
 102   2.0000      -0.261100        -7.1049
 103   2.0000      -0.251591        -6.8462
 104   2.0000      -0.246682        -6.7126
 105   0.0000      -0.009919        -0.2699
 106   0.0000       0.004606         0.1253
 107   0.0000       0.023547         0.6408
 108   0.0000       0.049020         1.3339
 109   0.0000       0.055380         1.5070

MULLIKEN ATOMIC CHARGES
-----------------------
   0 C :    0.476144
   1 C :    0.323819
   2 C :    0.312329
   3 C :    0.332209
   4 C :    0.334980
   5 C :    0.310437
   6 C :    0.342631
   7 C :    0.188600
   8 F :   -0.155052
   9 F :   -0.152601
  10 F :   -0.152607
  11 F :   -0.165626
  12 F :   -0.162677
  13 F :   -0.168453
  14 F :   -0.167795
  15 F :   -0.169511
  16 F :   -0.169848
  17 F :   -0.173971
  18 F :   -0.175169
  19 F :   -0.188396
  20 F :   -0.181867
  21 F :   -0.212740
  22 F :   -0.206950
  23 O :   -0.450111
  24 O :   -0.517591
  25 O :   -0.729891
  26 H :    0.325362
  27 H :    0.354346
Sum of atomic charges:   -1.0000000

LOEWDIN ATOMIC CHARGES
----------------------
   0 C :   -0.664205
   1 C :   -0.463242
   2 C :   -0.456845
   3 C :   -0.454570
   4 C :   -0.453683
   5 C :   -0.453990
   6 C :   -0.439889
   7 C :   -0.669400
   8 F :    0.225327
   9 F :    0.226989
  10 F :    0.225667
  11 F :    0.223442
  12 F :    0.224681
  13 F :    0.224668
  14 F :    0.224431
  15 F :    0.223316
  16 F :    0.222515
  17 F :    0.218249
  18 F :    0.217253
  19 F :    0.205395
  20 F :    0.214039
  21 F :    0.163986
  22 F :    0.171670
  23 O :   -0.026035
  24 O :   -0.053154
  25 O :   -0.370569
  26 H :    0.155039
  27 H :    0.138915

  Mayer bond orders larger than 0.100000
B(  0-C ,  1-C ) :   0.9698 B(  0-C ,  8-F ) :   1.1439 B(  0-C ,  9-F ) :   1.1556
B(  0-C , 10-F ) :   1.1483 B(  1-C ,  2-C ) :   0.9269 B(  1-C , 11-F ) :   1.0873
B(  1-C , 12-F ) :   1.0980 B(  2-C ,  3-C ) :   0.9335 B(  2-C , 13-F ) :   1.0820
B(  2-C , 14-F ) :   1.0872 B(  3-C ,  4-C ) :   0.9401 B(  3-C , 15-F ) :   1.0802
B(  3-C , 16-F ) :   1.0794 B(  4-C ,  5-C ) :   0.9276 B(  4-C , 17-F ) :   1.0789
B(  4-C , 18-F ) :   1.0712 B(  5-C ,  6-C ) :   0.9131 B(  5-C , 19-F ) :   1.0610
B(  5-C , 20-F ) :   1.0732 B(  6-C ,  7-C ) :   0.8738 B(  6-C , 21-F ) :   1.0320
B(  6-C , 22-F ) :   1.0528 B(  7-C , 23-O ) :   1.9381 B(  7-C , 24-O ) :   1.7017
B( 24-O , 27-H ) :   0.1093 B( 25-O , 26-H ) :   0.9027 B( 25-O , 27-H ) :   0.8224

Dispersion correction           -0.047215557
FINAL SINGLE POINT ENERGY     -2029.639844527406

DIPOLE MOMENT
-------------

Method             : SCF
Type of density    : Electron Density
Multiplicity       :   1
Irrep              :   0
Energy             : -2029.5926289700216785 Eh
Relativity type    :
Basis              : AO
                                X                 Y                 Z
Electronic contribution:      8.167667430      29.481270366       5.371669261
Nuclear contribution   :     -7.770929752     -21.644202271      -4.161976156
                        -----------------------------------------
Total Dipole Moment    :      0.396737679       7.837068094       1.209693105
                        -----------------------------------------
Magnitude (a.u.)       :      7.939798140
Magnitude (Debye)      :     20.181363033

Rotational constants in cm-1:             0.016754             0.003413             0.003246
Rotational constants in MHz :           502.284013           102.328757            97.317567

                             ****ORCA TERMINATED NORMALLY****
TOTAL RUN TIME: 0 days 1 hours 5 minutes 26 seconds 696 msec
