                         Program Version 6.0.1  -  RELEASE   -
|  1> !TPSSh def2-TZVP freq d3 TightSCF SlowConv defgrid2
|  2>
|  3> %pal
|  4> nprocs 20
|  5> end
|  6>
|  7> %scf
|  8> MaxIter 1500
|  9> end
| 10>
| 11> %maxcore 8000
| 12>
| 13> !CPCM
| 14> %cpcm smd true
| 15> SMDsolvent "ACETONITRILE"
| 16> end
| 17>
| 18> * xyz -2 2
| 19> 6        7.304885000     27.849027000      2.863778000
| 20> 6        6.843165000     26.385171000      3.069191000
| 21> 6        7.235481000     25.223179000      2.101389000
| 22> 6        6.807824000     23.706617000      2.199545000
| 23> 6        7.199014000     22.526259000      1.242625000
| 24> 6        6.757671000     21.041644000      1.449003000
| 25> 6        7.058892000     19.954300000      0.372924000
| 26> 6        6.721582000     18.496553000      0.819239000
| 27> 9        6.862776000     28.332370000      1.690861000
| 28> 9        8.645485000     27.936757000      2.880416000
| 29> 9        6.844648000     28.690188000      3.832734000
| 30> 9        7.294075000     26.040419000      4.321128000
| 31> 9        5.469421000     26.445085000      3.094727000
| 32> 9        6.790678000     25.641585000      0.853343000
| 33> 9        8.622833000     25.212355000      2.107688000
| 34> 9        7.246987000     23.304239000      3.458012000
| 35> 9        5.419940000     23.736150000      2.191837000
| 36> 9        6.740973000     22.891288000     -0.007484000
| 37> 9        8.578499000     22.509183000      1.216264000
| 38> 9        7.329470000     20.617931000      2.619709000
| 39> 9        5.397323000     21.042226000      1.626218000
| 40> 9        6.354767000     20.285885000     -0.755423000
| 41> 9        8.389224000     20.056190000      0.041627000
| 42> 8        7.641473000     17.876323000      1.396655000
| 43> 8        5.556245000     18.111340000      0.580268000
| 44> 8        3.385533000     19.007258000     -0.838276000
| 45> 1        2.744307000     18.363348000     -0.510235000
| 46> 1        4.219608000     18.778120000     -0.363187000
| 47> 1        9.157837000     18.486555000      2.039862000
| 48> 8       10.022814000     18.755602000      2.434280000
| 49> 1       10.060783000     19.707693000      2.275498000
| 50> *
| 51>
| 52>                          ****END OF INPUT****

CARTESIAN COORDINATES (ANGSTROEM)
---------------------------------
  C      7.304885   27.849027    2.863778
  C      6.843165   26.385171    3.069191
  C      7.235481   25.223179    2.101389
  C      6.807824   23.706617    2.199545
  C      7.199014   22.526259    1.242625
  C      6.757671   21.041644    1.449003
  C      7.058892   19.954300    0.372924
  C      6.721582   18.496553    0.819239
  F      6.862776   28.332370    1.690861
  F      8.645485   27.936757    2.880416
  F      6.844648   28.690188    3.832734
  F      7.294075   26.040419    4.321128
  F      5.469421   26.445085    3.094727
  F      6.790678   25.641585    0.853343
  F      8.622833   25.212355    2.107688
  F      7.246987   23.304239    3.458012
  F      5.419940   23.736150    2.191837
  F      6.740973   22.891288   -0.007484
  F      8.578499   22.509183    1.216264
  F      7.329470   20.617931    2.619709
  F      5.397323   21.042226    1.626218
  F      6.354767   20.285885   -0.755423
  F      8.389224   20.056190    0.041627
  O      7.641473   17.876323    1.396655
  O      5.556245   18.111340    0.580268
  O      3.385533   19.007258   -0.838276
  H      2.744307   18.363348   -0.510235
  H      4.219608   18.778120   -0.363187
  H      9.157837   18.486555    2.039862
  O     10.022814   18.755602    2.434280
  H     10.060783   19.707693    2.275498

 Total Charge           Charge          ....   -2
 Multiplicity           Mult            ....    2
 Number of Electrons    NEL             ....  221
 Basis Dimension        Dim             ....  861

ORBITAL ENERGIES
----------------
                 SPIN UP ORBITALS
  NO   OCC          E(Eh)            E(eV)
   0   1.0000     -24.637953      -670.4328
   1   1.0000     -24.637928      -670.4321
   2   1.0000     -24.630815      -670.2386
   3   1.0000     -24.620690      -669.9630
   4   1.0000     -24.620424      -669.9558
   5   1.0000     -24.614328      -669.7899
   6   1.0000     -24.613135      -669.7574
   7   1.0000     -24.608243      -669.6243
   8   1.0000     -24.607893      -669.6148
   9   1.0000     -24.606383      -669.5737
  10   1.0000     -24.605863      -669.5596
  11   1.0000     -24.604131      -669.5124
  12   1.0000     -24.603839      -669.5045
  13   1.0000     -24.601577      -669.4429
  14   1.0000     -24.600898      -669.4245
  15   1.0000     -19.008818      -517.2562
  16   1.0000     -19.007479      -517.2198
  17   1.0000     -18.997678      -516.9531
  18   1.0000     -18.997654      -516.9524
  19   1.0000     -10.364154      -282.0230
  20   1.0000     -10.296300      -280.1766
  21   1.0000     -10.286852      -279.9195
  22   1.0000     -10.281667      -279.7784
  23   1.0000     -10.279989      -279.7327
  24   1.0000     -10.274481      -279.5829
  25   1.0000     -10.270843      -279.4839
  26   1.0000     -10.196125      -277.4507
  27   1.0000      -1.291267       -35.1372
  28   1.0000      -1.243015       -33.8242
  29   1.0000      -1.239096       -33.7175
  30   1.0000      -1.225146       -33.3379
  31   1.0000      -1.218509       -33.1573
  32   1.0000      -1.215863       -33.0853
  33   1.0000      -1.209402       -32.9095
  34   1.0000      -1.205823       -32.8121
  35   1.0000      -1.198825       -32.6217
  36   1.0000      -1.185442       -32.2575
  37   1.0000      -1.182615       -32.1806
  38   1.0000      -1.172489       -31.9050
  39   1.0000      -1.167300       -31.7638
  40   1.0000      -1.164875       -31.6979
  41   1.0000      -1.159882       -31.5620
  42   1.0000      -1.005507       -27.3612
  43   1.0000      -0.944180       -25.6925
  44   1.0000      -0.941583       -25.6218
  45   1.0000      -0.919694       -25.0262
  46   1.0000      -0.770304       -20.9610
  47   1.0000      -0.761257       -20.7149
  48   1.0000      -0.733836       -19.9687
  49   1.0000      -0.703363       -19.1395
  50   1.0000      -0.665158       -18.0999
  51   1.0000      -0.633349       -17.2343
  52   1.0000      -0.607367       -16.5273
  53   1.0000      -0.580117       -15.7858
  54   1.0000      -0.578791       -15.7497
  55   1.0000      -0.577466       -15.7137
  56   1.0000      -0.564977       -15.3738
  57   1.0000      -0.556623       -15.1465
  58   1.0000      -0.552741       -15.0408
  59   1.0000      -0.544522       -14.8172
  60   1.0000      -0.541872       -14.7451
  61   1.0000      -0.531128       -14.4527
  62   1.0000      -0.530516       -14.4361
  63   1.0000      -0.526516       -14.3272
  64   1.0000      -0.516762       -14.0618
  65   1.0000      -0.510481       -13.8909
  66   1.0000      -0.506367       -13.7789
  67   1.0000      -0.496733       -13.5168
  68   1.0000      -0.482846       -13.1389
  69   1.0000      -0.467567       -12.7231
  70   1.0000      -0.450708       -12.2644
  71   1.0000      -0.450256       -12.2521
  72   1.0000      -0.445295       -12.1171
  73   1.0000      -0.433704       -11.8017
  74   1.0000      -0.428953       -11.6724
  75   1.0000      -0.427496       -11.6328
  76   1.0000      -0.426168       -11.5966
  77   1.0000      -0.422280       -11.4908
  78   1.0000      -0.419505       -11.4153
  79   1.0000      -0.417557       -11.3623
  80   1.0000      -0.415444       -11.3048
  81   1.0000      -0.413976       -11.2649
  82   1.0000      -0.410570       -11.1722
  83   1.0000      -0.405098       -11.0233
  84   1.0000      -0.402867       -10.9626
  85   1.0000      -0.396116       -10.7789
  86   1.0000      -0.392843       -10.6898
  87   1.0000      -0.392752       -10.6873
  88   1.0000      -0.391263       -10.6468
  89   1.0000      -0.389989       -10.6122
  90   1.0000      -0.383852       -10.4451
  91   1.0000      -0.380851       -10.3635
  92   1.0000      -0.377428       -10.2703
  93   1.0000      -0.376242       -10.2381
  94   1.0000      -0.374965       -10.2033
  95   1.0000      -0.370762       -10.0889
  96   1.0000      -0.368886       -10.0379
  97   1.0000      -0.367868       -10.0102
  98   1.0000      -0.364490        -9.9183
  99   1.0000      -0.355743        -9.6803
 100   1.0000      -0.346433        -9.4269
 101   1.0000      -0.330929        -9.0050
 102   1.0000      -0.328393        -8.9360
 103   1.0000      -0.322042        -8.7632
 104   1.0000      -0.292576        -7.9614
 105   1.0000      -0.257092        -6.9958
 106   1.0000      -0.254387        -6.9222
 107   1.0000      -0.239684        -6.5221
 108   1.0000      -0.229186        -6.2365
 109   1.0000      -0.224794        -6.1170
 110   1.0000      -0.070491        -1.9182
 111   0.0000       0.004458         0.1213
 112   0.0000       0.029878         0.8130
 113   0.0000       0.046403         1.2627
 114   0.0000       0.055546         1.5115
 115   0.0000       0.065150         1.7728

                 SPIN DOWN ORBITALS
  NO   OCC          E(Eh)            E(eV)
   0   1.0000     -24.637940      -670.4324
   1   1.0000     -24.637915      -670.4317
   2   1.0000     -24.629781      -670.2104
   3   1.0000     -24.620410      -669.9554
   4   1.0000     -24.620137      -669.9480
   5   1.0000     -24.614229      -669.7872
   6   1.0000     -24.612991      -669.7535
   7   1.0000     -24.607938      -669.6160
   8   1.0000     -24.607586      -669.6065
   9   1.0000     -24.605910      -669.5609
  10   1.0000     -24.605371      -669.5462
  11   1.0000     -24.604062      -669.5106
  12   1.0000     -24.603731      -669.5016
  13   1.0000     -24.601095      -669.4298
  14   1.0000     -24.600382      -669.4104
  15   1.0000     -19.008819      -517.2563
  16   1.0000     -19.007481      -517.2198
  17   1.0000     -18.997337      -516.9438
  18   1.0000     -18.997312      -516.9431
  19   1.0000     -10.362734      -281.9843
  20   1.0000     -10.294101      -280.1167
  21   1.0000     -10.285390      -279.8797
  22   1.0000     -10.279059      -279.7074
  23   1.0000     -10.276565      -279.6396
  24   1.0000     -10.270885      -279.4850
  25   1.0000     -10.270124      -279.4643
  26   1.0000     -10.195737      -277.4401
  27   1.0000      -1.290441       -35.1147
  28   1.0000      -1.241982       -33.7961
  29   1.0000      -1.237997       -33.6876
  30   1.0000      -1.223972       -33.3060
  31   1.0000      -1.218103       -33.1463
  32   1.0000      -1.214696       -33.0536
  33   1.0000      -1.209277       -32.9061
  34   1.0000      -1.204432       -32.7742
  35   1.0000      -1.197284       -32.5798
  36   1.0000      -1.184721       -32.2379
  37   1.0000      -1.182115       -32.1670
  38   1.0000      -1.171669       -31.8827
  39   1.0000      -1.166462       -31.7411
  40   1.0000      -1.164633       -31.6913
  41   1.0000      -1.158885       -31.5349
  42   1.0000      -1.004853       -27.3434
  43   1.0000      -0.944141       -25.6914
  44   1.0000      -0.941576       -25.6216
  45   1.0000      -0.919116       -25.0104
  46   1.0000      -0.762501       -20.7487
  47   1.0000      -0.755189       -20.5497
  48   1.0000      -0.726249       -19.7622
  49   1.0000      -0.697695       -18.9852
  50   1.0000      -0.661538       -18.0014
  51   1.0000      -0.631242       -17.1770
  52   1.0000      -0.605223       -16.4690
  53   1.0000      -0.579178       -15.7602
  54   1.0000      -0.576265       -15.6810
  55   1.0000      -0.573995       -15.6192
  56   1.0000      -0.562570       -15.3083
  57   1.0000      -0.552638       -15.0381
  58   1.0000      -0.551108       -14.9964
  59   1.0000      -0.542896       -14.7729
  60   1.0000      -0.538005       -14.6399
  61   1.0000      -0.529443       -14.4069
  62   1.0000      -0.528081       -14.3698
  63   1.0000      -0.523708       -14.2508
  64   1.0000      -0.515619       -14.0307
  65   1.0000      -0.506298       -13.7771
  66   1.0000      -0.503924       -13.7125
  67   1.0000      -0.495693       -13.4885
  68   1.0000      -0.482682       -13.1344
  69   1.0000      -0.467544       -12.7225
  70   1.0000      -0.449898       -12.2424
  71   1.0000      -0.449008       -12.2181
  72   1.0000      -0.444703       -12.1010
  73   1.0000      -0.433257       -11.7895
  74   1.0000      -0.428091       -11.6489
  75   1.0000      -0.426915       -11.6169
  76   1.0000      -0.425722       -11.5845
  77   1.0000      -0.421487       -11.4692
  78   1.0000      -0.418839       -11.3972
  79   1.0000      -0.416849       -11.3430
  80   1.0000      -0.414392       -11.2762
  81   1.0000      -0.413003       -11.2384
  82   1.0000      -0.410000       -11.1567
  83   1.0000      -0.404227       -10.9996
  84   1.0000      -0.401916       -10.9367
  85   1.0000      -0.395309       -10.7569
  86   1.0000      -0.392345       -10.6763
  87   1.0000      -0.391927       -10.6649
  88   1.0000      -0.390407       -10.6235
  89   1.0000      -0.389225       -10.5913
  90   1.0000      -0.383510       -10.4358
  91   1.0000      -0.379564       -10.3285
  92   1.0000      -0.377070       -10.2606
  93   1.0000      -0.373539       -10.1645
  94   1.0000      -0.372449       -10.1349
  95   1.0000      -0.370181       -10.0731
  96   1.0000      -0.366699        -9.9784
  97   1.0000      -0.365985        -9.9589
  98   1.0000      -0.361128        -9.8268
  99   1.0000      -0.350322        -9.5327
 100   1.0000      -0.342547        -9.3212
 101   1.0000      -0.330517        -8.9938
 102   1.0000      -0.327848        -8.9212
 103   1.0000      -0.319702        -8.6995
 104   1.0000      -0.291741        -7.9387
 105   1.0000      -0.256902        -6.9907
 106   1.0000      -0.254362        -6.9215
 107   1.0000      -0.238142        -6.4802
 108   1.0000      -0.228328        -6.2131
 109   1.0000      -0.224420        -6.1068
 110   0.0000      -0.018685        -0.5084
 111   0.0000       0.017474         0.4755
 112   0.0000       0.036482         0.9927
 113   0.0000       0.051549         1.4027
 114   0.0000       0.064666         1.7597

MULLIKEN ATOMIC CHARGES AND SPIN POPULATIONS
--------------------------------------------
   0 C :    0.382674    0.067024
   1 C :    0.262515    0.121918
   2 C :    0.208561    0.224700
   3 C :    0.220024    0.249872
   4 C :    0.240611    0.166637
   5 C :    0.250257    0.084460
   6 C :    0.281733    0.037754
   7 C :    0.276210    0.019627
   8 F :   -0.157520   -0.001230
   9 F :   -0.157799   -0.001256
  10 F :   -0.167625    0.011614
  11 F :   -0.192097    0.000266
  12 F :   -0.192425    0.000375
  13 F :   -0.216215    0.000458
  14 F :   -0.214630    0.000335
  15 F :   -0.221385    0.000209
  16 F :   -0.217407   -0.000132
  17 F :   -0.207394   -0.001094
  18 F :   -0.207514   -0.000974
  19 F :   -0.197893   -0.000901
  20 F :   -0.198807   -0.000254
  21 F :   -0.205726   -0.000133
  22 F :   -0.208629    0.000298
  23 O :   -0.517020    0.010323
  24 O :   -0.523902    0.010155
  25 O :   -0.740804   -0.000013
  26 H :    0.329525    0.000002
  27 H :    0.352072   -0.000072
  28 H :    0.347567   -0.000138
  29 O :   -0.736114   -0.000051
  30 H :    0.329154    0.000220
Sum of atomic charges         :   -2.0000000

LOEWDIN ATOMIC CHARGES AND SPIN POPULATIONS
-------------------------------------------
   0 C :   -0.658113    0.056336
   1 C :   -0.479770    0.128802
   2 C :   -0.474380    0.199283
   3 C :   -0.475424    0.211294
   4 C :   -0.472292    0.150804
   5 C :   -0.464002    0.079842
   6 C :   -0.451352    0.041775
   7 C :   -0.647086    0.020891
   8 F :    0.199843    0.000636
   9 F :    0.199711    0.000628
  10 F :    0.164911    0.020222
  11 F :    0.164624    0.005296
  12 F :    0.163743    0.005384
  13 F :    0.134825    0.009414
  14 F :    0.137602    0.009154
  15 F :    0.127538    0.009886
  16 F :    0.133305    0.009477
  17 F :    0.150365    0.005884
  18 F :    0.150831    0.006007
  19 F :    0.174576    0.002142
  20 F :    0.169136    0.002653
  21 F :    0.157468    0.001501
  22 F :    0.151280    0.001968
  23 O :   -0.041941    0.010372
  24 O :   -0.044952    0.010358
  25 O :   -0.376368   -0.000025
  26 H :    0.154233   -0.000002
  27 H :    0.139402   -0.000038
  28 H :    0.135844   -0.000042
  29 O :   -0.372119   -0.000038
  30 H :    0.148565    0.000137

  Mayer bond orders larger than 0.100000
B(  0-C ,  1-C ) :   0.9639 B(  0-C ,  8-F ) :   1.1519 B(  0-C ,  9-F ) :   1.1517
B(  0-C , 10-F ) :   1.1072 B(  1-C ,  2-C ) :   0.9181 B(  1-C , 11-F ) :   1.0470
B(  1-C , 12-F ) :   1.0454 B(  2-C ,  3-C ) :   0.9003 B(  2-C , 13-F ) :   1.0109
B(  2-C , 14-F ) :   1.0128 B(  3-C ,  4-C ) :   0.9064 B(  3-C , 15-F ) :   0.9988
B(  3-C , 16-F ) :   1.0056 B(  4-C ,  5-C ) :   0.8928 B(  4-C , 17-F ) :   1.0281
B(  4-C , 18-F ) :   1.0283 B(  5-C ,  6-C ) :   0.8903 B(  5-C , 19-F ) :   1.0447
B(  5-C , 20-F ) :   1.0569 B(  6-C ,  7-C ) :   0.9094 B(  6-C , 21-F ) :   1.0461
B(  6-C , 22-F ) :   1.0430 B(  7-C , 23-O ) :   1.6997 B(  7-C , 24-O ) :   1.7019
B( 23-O , 28-H ) :   0.1293 B( 24-O , 27-H ) :   0.1220 B( 25-O , 26-H ) :   0.9002
B( 25-O , 27-H ) :   0.8091 B( 28-H , 29-O ) :   0.8152 B( 29-O , 30-H ) :   0.9001

Dispersion correction           -0.034505195
FINAL SINGLE POINT ENERGY     -2106.888629628659

DIPOLE MOMENT
-------------

Method             : SCF
Type of density    : Electron Density
Multiplicity       :   2
Irrep              :   0
Energy             : -2106.8541244334287512 Eh
Relativity type    :
Basis              : AO
                                X                 Y                 Z
Electronic contribution:      2.867471541      38.228307684       7.322386821
Nuclear contribution   :     -2.780428413     -31.387959144      -6.129409399
                        -----------------------------------------
Total Dipole Moment    :      0.087043128       6.840348540       1.192977422
                        -----------------------------------------
Magnitude (a.u.)       :      6.944144280
Magnitude (Debye)      :     17.650612043

VIBRATIONAL FREQUENCIES
-----------------------

Scaling factor for frequencies =  1.000000000  (already applied!)

     0:       0.00 cm**-1
     1:       0.00 cm**-1
     2:       0.00 cm**-1
     3:       0.00 cm**-1
     4:       0.00 cm**-1
     5:       0.00 cm**-1
     6:       9.44 cm**-1
     7:      13.54 cm**-1
     8:      26.25 cm**-1
     9:      28.59 cm**-1
    10:      38.78 cm**-1
    11:      41.65 cm**-1
    12:      48.36 cm**-1
    13:      53.16 cm**-1
    14:      56.53 cm**-1
    15:      67.40 cm**-1
    16:      69.51 cm**-1
    17:      84.95 cm**-1
    18:      95.21 cm**-1
    19:      98.22 cm**-1
    20:     102.81 cm**-1
    21:     131.93 cm**-1
    22:     150.16 cm**-1
    23:     161.63 cm**-1
    24:     171.21 cm**-1
    25:     182.33 cm**-1
    26:     193.21 cm**-1
    27:     198.14 cm**-1
    28:     206.52 cm**-1
    29:     221.70 cm**-1
    30:     234.47 cm**-1
    31:     239.44 cm**-1
    32:     240.90 cm**-1
    33:     250.35 cm**-1
    34:     273.81 cm**-1
    35:     310.04 cm**-1
    36:     314.88 cm**-1
    37:     317.34 cm**-1
    38:     322.47 cm**-1
    39:     327.08 cm**-1
    40:     337.02 cm**-1
    41:     351.23 cm**-1
    42:     359.63 cm**-1
    43:     368.89 cm**-1
    44:     410.84 cm**-1
    45:     432.51 cm**-1
    46:     452.86 cm**-1
    47:     460.80 cm**-1
    48:     469.78 cm**-1
    49:     500.21 cm**-1
    50:     511.46 cm**-1
    51:     522.04 cm**-1
    52:     549.22 cm**-1
    53:     554.91 cm**-1
    54:     576.30 cm**-1
    55:     584.60 cm**-1
    56:     587.84 cm**-1
    57:     610.10 cm**-1
    58:     629.77 cm**-1
    59:     660.48 cm**-1
    60:     673.37 cm**-1
    61:     708.43 cm**-1
    62:     710.37 cm**-1
    63:     725.88 cm**-1
    64:     741.58 cm**-1
    65:     784.99 cm**-1
    66:     818.83 cm**-1
    67:     888.31 cm**-1
    68:     891.23 cm**-1
    69:     929.91 cm**-1
    70:     956.74 cm**-1
    71:     977.88 cm**-1
    72:    1000.13 cm**-1
    73:    1006.12 cm**-1
    74:    1026.01 cm**-1
    75:    1028.68 cm**-1
    76:    1033.01 cm**-1
    77:    1047.18 cm**-1
    78:    1064.58 cm**-1
    79:    1071.92 cm**-1
    80:    1087.61 cm**-1
    81:    1106.35 cm**-1
    82:    1132.47 cm**-1
    83:    1135.32 cm**-1
    84:    1232.95 cm**-1
    85:    1357.94 cm**-1
    86:    1664.76 cm**-1
    87:    1671.23 cm**-1
    88:    1682.19 cm**-1
    89:    3350.76 cm**-1
    90:    3380.87 cm**-1
    91:    3790.73 cm**-1
    92:    3798.69 cm**-1

IR SPECTRUM
-----------

 Mode   freq       eps      Int      T**2         TX        TY        TZ
       cm**-1   L/(mol*cm) km/mol    a.u.
----------------------------------------------------------------------------
  6:      9.44   0.000181    0.92  0.005995  (-0.010591 -0.073986 -0.020211)
  7:     13.54   0.000016    0.08  0.000374  (-0.008225  0.016978  0.004234)
  8:     26.25   0.000045    0.23  0.000533  ( 0.004011  0.014670  0.017370)
  9:     28.59   0.000029    0.15  0.000318  ( 0.002320 -0.011458  0.013468)
 10:     38.78   0.000390    1.97  0.003141  (-0.039054 -0.036407  0.017052)
 11:     41.65   0.000160    0.81  0.001197  (-0.025357 -0.000187 -0.023528)
 12:     48.36   0.000171    0.87  0.001105  (-0.013212 -0.018400  0.024329)
 13:     53.16   0.000564    2.85  0.003313  ( 0.048570  0.023910  0.019553)
 14:     56.53   0.000216    1.09  0.001192  (-0.018717 -0.025734  0.013392)
 15:     67.40   0.000247    1.25  0.001144  (-0.026379 -0.016825 -0.012855)
 16:     69.51   0.000018    0.09  0.000081  (-0.003454 -0.007401 -0.003762)
 17:     84.95   0.002704   13.67  0.009934  ( 0.028913 -0.074427 -0.059652)
 18:     95.21   0.000049    0.25  0.000161  (-0.004283  0.011537  0.003041)
 19:     98.22   0.000866    4.38  0.002752  (-0.032333 -0.028608  0.029801)
 20:    102.81   0.032058  162.01  0.097308  ( 0.076816 -0.204926 -0.222291)
 21:    131.93   0.030670  154.99  0.072545  (-0.009482  0.254465  0.087765)
 22:    150.16   0.024164  122.12  0.050218  ( 0.011581  0.217696  0.051883)
 23:    161.63   0.002828   14.29  0.005460  (-0.024344  0.040062  0.057114)
 24:    171.21   0.024898  125.82  0.045381  ( 0.095724 -0.030286 -0.187884)
 25:    182.33   0.000958    4.84  0.001640  ( 0.027232 -0.029874 -0.002397)
 26:    193.21   0.001320    6.67  0.002133  (-0.035890  0.006621 -0.028300)
 27:    198.14   0.001886    9.53  0.002971  ( 0.050449  0.004834  0.020054)
 28:    206.52   0.003839   19.40  0.005800  ( 0.066846  0.013503  0.033903)
 29:    221.70   0.003122   15.78  0.004395  ( 0.054971  0.010748  0.035465)
 30:    234.47   0.000399    2.02  0.000531  ( 0.018488  0.005729  0.012521)
 31:    239.44   0.005444   27.51  0.007095  ( 0.016408  0.079293  0.023196)
 32:    240.90   0.014880   75.20  0.019275  ( 0.000116  0.135762  0.029044)
 33:    250.35   0.000312    1.58  0.000389  (-0.015625 -0.005407 -0.010761)
 34:    273.81   0.005628   28.44  0.006414  ( 0.070818 -0.007300  0.036678)
 35:    310.04   0.004631   23.40  0.004661  (-0.000999  0.066075  0.017148)
 36:    314.88   0.000423    2.14  0.000420  (-0.004437 -0.018985 -0.006280)
 37:    317.34   0.018208   92.02  0.017906  (-0.005308 -0.128513 -0.036904)
 38:    322.47   0.000003    0.01  0.000003  ( 0.000385  0.001617  0.000111)
 39:    327.08   0.000314    1.58  0.000299  ( 0.001207  0.013655  0.010548)
 40:    337.02   0.016158   81.66  0.014962  ( 0.000838 -0.117429 -0.034225)
 41:    351.23   0.000998    5.05  0.000887  ( 0.006277  0.028689  0.004962)
 42:    359.63   0.000193    0.97  0.000167  ( 0.009129  0.004664  0.007888)
 43:    368.89   0.004027   20.35  0.003407  (-0.037513 -0.038600 -0.022580)
 44:    410.84   0.000367    1.85  0.000278  (-0.009668  0.013500  0.001627)
 45:    432.51   0.013710   69.28  0.009892  (-0.095581 -0.022280 -0.016118)
 46:    452.86   0.020596  104.08  0.014193  ( 0.095376  0.067012  0.024603)
 47:    460.80   0.000437    2.21  0.000296  ( 0.001719  0.003928 -0.016658)
 48:    469.78   0.002309   11.67  0.001533  (-0.012825 -0.036932  0.002252)
 49:    500.21   0.003275   16.55  0.002043  (-0.000193  0.042333  0.015850)
 50:    511.46   0.000293    1.48  0.000179  (-0.003619 -0.010549  0.007371)
 51:    522.04   0.006686   33.79  0.003997  (-0.015517 -0.059687  0.013911)
 52:    549.22   0.000508    2.57  0.000289  ( 0.012260 -0.011707 -0.001203)
 53:    554.91   0.001532    7.74  0.000861  ( 0.007752 -0.002652 -0.028181)
 54:    576.30   0.002999   15.16  0.001624  ( 0.008929  0.039020  0.004654)
 55:    584.60   0.000951    4.81  0.000508  (-0.009091 -0.020324 -0.003491)
 56:    587.84   0.000066    0.33  0.000035  (-0.003296 -0.000499 -0.004888)
 57:    610.10   0.035004  176.89  0.017904  (-0.000291 -0.126746 -0.042889)
 58:    629.77   0.070521  356.39  0.034945  ( 0.011920  0.181794  0.041875)
 59:    660.48   0.071072  359.17  0.033580  ( 0.003738  0.176679  0.048481)
 60:    673.37   0.024004  121.30  0.011124  ( 0.001462 -0.099462 -0.035061)
 61:    708.43   0.019716   99.64  0.008685  ( 0.004179  0.090893  0.020150)
 62:    710.37   0.026975  136.32  0.011850  (-0.019712  0.069544  0.081394)
 63:    725.88   0.027373  138.33  0.011768  (-0.045908  0.030872  0.093312)
 64:    741.58   0.017931   90.62  0.007545  ( 0.010834 -0.075314 -0.041903)
 65:    784.99   0.005560   28.10  0.002210  (-0.017374 -0.039243  0.019200)
 66:    818.83   0.027907  141.03  0.010636  ( 0.020805  0.100762 -0.007060)
 67:    888.31   0.008876   44.86  0.003118  (-0.003968  0.054195  0.012860)
 68:    891.23   0.019837  100.25  0.006946  ( 0.002574 -0.076719 -0.032456)
 69:    929.91   0.104312  527.15  0.035006  ( 0.004595  0.184381  0.031435)
 70:    956.74   0.026053  131.66  0.008498  (-0.033090  0.078306 -0.035650)
 71:    977.88   0.169647  857.32  0.054138  ( 0.050550  0.226814  0.011759)
 72:   1000.13   0.119546  604.14  0.037301  (-0.002979 -0.154383 -0.116009)
 73:   1006.12   0.013291   67.17  0.004122  ( 0.042256 -0.045032  0.017577)
 74:   1026.01   0.368393  1861.71  0.112047  (-0.144915  0.225360  0.200647)
 75:   1028.68   0.124343  628.38  0.037721  ( 0.103784  0.023506  0.162472)
 76:   1033.01   0.007343   37.11  0.002218  (-0.003979  0.046680 -0.004841)
 77:   1047.18   0.175871  888.78  0.052410  (-0.102057 -0.193395 -0.067772)
 78:   1064.58   0.028043  141.72  0.008220  (-0.046167 -0.056601  0.053714)
 79:   1071.92   0.213806  1080.49  0.062244  (-0.179342  0.173293  0.007097)
 80:   1087.61   0.100056  505.64  0.028709  ( 0.050673  0.046767  0.154770)
 81:   1106.35   0.006797   34.35  0.001917  ( 0.024705  0.002295  0.036077)
 82:   1132.47   0.111552  563.74  0.030739  (-0.136553  0.060036 -0.092132)
 83:   1135.32   0.317067  1602.33  0.087152  (-0.071769 -0.284058 -0.036225)
 84:   1232.95   0.290556  1468.35  0.073541  ( 0.035128  0.267934  0.022758)
 85:   1357.94   0.182592  922.74  0.041961  ( 0.016229  0.201705  0.031818)
 86:   1664.76   0.255967  1293.55  0.047982  (-0.195172  0.042061 -0.090114)
 87:   1671.23   0.015102   76.32  0.002820  ( 0.032840  0.037451 -0.018411)
 88:   1682.19   0.014861   75.10  0.002757  ( 0.027919  0.044414  0.002190)
 89:   3350.76   0.349410  1765.77  0.032541  ( 0.166009 -0.002522  0.070540)
 90:   3380.87   0.124864  631.01  0.011525  (-0.086214 -0.028762 -0.057142)
 91:   3790.73   0.016473   83.25  0.001356  (-0.031631 -0.018617 -0.002998)
 92:   3798.69   0.007131   36.04  0.000586  (-0.016318 -0.017776 -0.001886)

--------------------------
THERMOCHEMISTRY AT 298.15K
--------------------------

Temperature         ...   298.15 K
Pressure            ...     1.00 atm
Total Mass          ...   449.09 AMU
Quasi RRHO          ...     True
Cut-Off Frequency   ...     1.00 cm^-1

Throughout the following assumptions are being made:
  (1) The electronic state is orbitally nondegenerate
      but the spin degeneracy is treated
  (2) There are no thermally accessible electronically excited states
  (3) Hindered rotations indicated by low frequency modes are not
      treated as such but are treated as vibrations and this may
      cause some error
  (4) All equations used are the standard statistical mechanics
      equations for an ideal gas
  (5) All vibrations are strictly harmonic

freq.       9.44  E(vib)   ...       0.58
freq.      13.54  E(vib)   ...       0.57
freq.      26.25  E(vib)   ...       0.56
freq.      28.59  E(vib)   ...       0.55
freq.      38.78  E(vib)   ...       0.54
freq.      41.65  E(vib)   ...       0.53
freq.      48.36  E(vib)   ...       0.53
freq.      53.16  E(vib)   ...       0.52
freq.      56.53  E(vib)   ...       0.52
freq.      67.40  E(vib)   ...       0.50
freq.      69.51  E(vib)   ...       0.50
freq.      84.95  E(vib)   ...       0.48
freq.      95.21  E(vib)   ...       0.47
freq.      98.22  E(vib)   ...       0.46
freq.     102.81  E(vib)   ...       0.46
freq.     131.93  E(vib)   ...       0.42
freq.     150.16  E(vib)   ...       0.40
freq.     161.63  E(vib)   ...       0.39
freq.     171.21  E(vib)   ...       0.38
freq.     182.33  E(vib)   ...       0.37
freq.     193.21  E(vib)   ...       0.36
freq.     198.14  E(vib)   ...       0.35
freq.     206.52  E(vib)   ...       0.35
freq.     221.70  E(vib)   ...       0.33
freq.     234.47  E(vib)   ...       0.32
freq.     239.44  E(vib)   ...       0.31
freq.     240.90  E(vib)   ...       0.31
freq.     250.35  E(vib)   ...       0.30
freq.     273.81  E(vib)   ...       0.28
freq.     310.04  E(vib)   ...       0.26
freq.     314.88  E(vib)   ...       0.25
freq.     317.34  E(vib)   ...       0.25
freq.     322.47  E(vib)   ...       0.25
freq.     327.08  E(vib)   ...       0.24
freq.     337.02  E(vib)   ...       0.24
freq.     351.23  E(vib)   ...       0.23
freq.     359.63  E(vib)   ...       0.22
freq.     368.89  E(vib)   ...       0.21
freq.     410.84  E(vib)   ...       0.19
freq.     432.51  E(vib)   ...       0.18
freq.     452.86  E(vib)   ...       0.16
freq.     460.80  E(vib)   ...       0.16
freq.     469.78  E(vib)   ...       0.16
freq.     500.21  E(vib)   ...       0.14
freq.     511.46  E(vib)   ...       0.14
freq.     522.04  E(vib)   ...       0.13
freq.     549.22  E(vib)   ...       0.12
freq.     554.91  E(vib)   ...       0.12
freq.     576.30  E(vib)   ...       0.11
freq.     584.60  E(vib)   ...       0.11
freq.     587.84  E(vib)   ...       0.10
freq.     610.10  E(vib)   ...       0.10
freq.     629.77  E(vib)   ...       0.09
freq.     660.48  E(vib)   ...       0.08
freq.     673.37  E(vib)   ...       0.08
freq.     708.43  E(vib)   ...       0.07
freq.     710.37  E(vib)   ...       0.07
freq.     725.88  E(vib)   ...       0.06
freq.     741.58  E(vib)   ...       0.06
freq.     784.99  E(vib)   ...       0.05
freq.     818.83  E(vib)   ...       0.05
freq.     888.31  E(vib)   ...       0.04
freq.     891.23  E(vib)   ...       0.04
freq.     929.91  E(vib)   ...       0.03
freq.     956.74  E(vib)   ...       0.03
freq.     977.88  E(vib)   ...       0.03
freq.    1000.13  E(vib)   ...       0.02
freq.    1006.12  E(vib)   ...       0.02
freq.    1026.01  E(vib)   ...       0.02
freq.    1028.68  E(vib)   ...       0.02
freq.    1033.01  E(vib)   ...       0.02
freq.    1047.18  E(vib)   ...       0.02
freq.    1064.58  E(vib)   ...       0.02
freq.    1071.92  E(vib)   ...       0.02
freq.    1087.61  E(vib)   ...       0.02
freq.    1106.35  E(vib)   ...       0.02
freq.    1132.47  E(vib)   ...       0.01
freq.    1135.32  E(vib)   ...       0.01
freq.    1232.95  E(vib)   ...       0.01
freq.    1357.94  E(vib)   ...       0.01
freq.    1664.76  E(vib)   ...       0.00
freq.    1671.23  E(vib)   ...       0.00
freq.    1682.19  E(vib)   ...       0.00
freq.    3350.76  E(vib)   ...       0.00
freq.    3380.87  E(vib)   ...       0.00
freq.    3790.73  E(vib)   ...       0.00
freq.    3798.69  E(vib)   ...       0.00

------------
INNER ENERGY
------------

The inner energy is: U= E(el) + E(ZPE) + E(vib) + E(rot) + E(trans)
    E(el)   - is the total energy from the electronic structure calculation
              = E(kin-el) + E(nuc-el) + E(el-el) + E(nuc-nuc)
    E(ZPE)  - the the zero temperature vibrational energy from the frequency calculation
    E(vib)  - the the finite temperature correction to E(ZPE) due to population
              of excited vibrational states
    E(rot)  - is the rotational thermal energy
    E(trans)- is the translational thermal energy

Summary of contributions to the inner energy U:
Electronic energy                ...  -2106.88862963 Eh
Zero point energy                ...      0.13598283 Eh      85.33 kcal/mol
Thermal vibrational correction   ...      0.02821661 Eh      17.71 kcal/mol
Thermal rotational correction    ...      0.00141627 Eh       0.89 kcal/mol
Thermal translational correction ...      0.00141627 Eh       0.89 kcal/mol
-----------------------------------------------------------------------
Total thermal energy                  -2106.72159765 Eh

Summary of corrections to the electronic energy:
(perhaps to be used in another calculation)
Total thermal correction                  0.03104916 Eh      19.48 kcal/mol
Non-thermal (ZPE) correction              0.13598283 Eh      85.33 kcal/mol
-----------------------------------------------------------------------
Total correction                          0.16703198 Eh     104.81 kcal/mol

--------
ENTHALPY
--------

The enthalpy is H = U + kB*T
                kB is Boltzmann's constant
Total thermal energy              ...  -2106.72159765 Eh
Thermal Enthalpy correction       ...      0.00094421 Eh       0.59 kcal/mol
-----------------------------------------------------------------------
Total Enthalpy                    ...  -2106.72065344 Eh

Note: Only C1 symmetry has been detected, increase convergence thresholds
      if your molecule has a higher symmetry. Symmetry factor of 1.0 is
      used for the rotational entropy correction.

Note: Rotational entropy computed according to Herzberg
Infrared and Raman Spectra, Chapter V,1, Van Nostrand Reinhold, 1945
Point Group:  C1, Symmetry Number:   1
Rotational constants in cm-1:     0.013468     0.002903     0.002698

                             ****ORCA TERMINATED NORMALLY****
TOTAL RUN TIME: 0 days 0 hours 29 minutes 39 seconds 414 msec
