                         Program Version 5.0.3 -  RELEASE  -
|  1> !TPSSh def2-TZVP opt d3 TightSCF SlowConv defgrid2
|  2>
|  3> %pal
|  4> nprocs 20
|  5> end
|  6>
|  7> %scf
|  8> MaxIter 1500
|  9> end
| 10>
| 11> %maxcore 8000
| 12>
| 13> !CPCM
| 14> %cpcm smd true
| 15> SMDsolvent "ACETONITRILE"
| 16> end
| 17>
| 18> * xyz -1 2
| 19> 6        4.790427000     -0.033865800     -0.529943200
| 20> 8        5.449345000     -1.206924000     -0.894594600
| 21> 8        4.978223000      1.323071000     -0.737377200
| 22> 6        3.506687600     -0.338741600      0.376153800
| 23> 6        2.222300000      0.400524800     -0.110681600
| 24> 6        0.900506800     -0.386389800      0.175703000
| 25> 6       -0.395261200      0.487294000      0.065549000
| 26> 6       -1.705693600     -0.364773800     -0.068373600
| 27> 6       -3.005136200      0.445344800      0.258164000
| 28> 6       -4.319880200     -0.214526000     -0.270540800
| 29> 9        3.211587400     -1.692050400      0.412735200
| 30> 9        3.741061800      0.055285800      1.689948800
| 31> 9        2.125696800      1.616867800      0.483236600
| 32> 9        2.314152400      0.589704000     -1.455769200
| 33> 9        0.958350600     -0.884509000      1.435093400
| 34> 9       -0.498373400      1.260265600      1.173340200
| 35> 9       -0.299075000      1.289512600     -1.020910800
| 36> 9       -1.641790400     -1.418189000      0.779523800
| 37> 9       -1.792381400     -0.831391600     -1.336863600
| 38> 9       -2.918792200      1.679227200     -0.295171200
| 39> 9       -3.119771000      0.573779800      1.598579800
| 40> 9       -4.383115600     -1.504377600      0.089127600
| 41> 9       -5.365669800      0.430528600      0.260394200
| 42> 9       -4.396020400     -0.128550600     -1.602941800
| 43> *
| 44>
| 45>                          ****END OF INPUT****
 Total Charge           Charge          ....   -1
 Multiplicity           Mult            ....    2
 Number of Electrons    NEL             ....  191
Dispersion correction           -0.028623305
FINAL SINGLE POINT ENERGY     -1853.893780348662
Dispersion correction            ... done
Dispersion correction           -0.028739356
FINAL SINGLE POINT ENERGY     -1853.936454810992
Dispersion correction            ... done
Dispersion correction           -0.028780975
FINAL SINGLE POINT ENERGY     -1853.944279859121
Dispersion correction            ... done
FINAL SINGLE POINT ENERGY     -1853.948676817593
FINAL SINGLE POINT ENERGY     -1853.950248150071
FINAL SINGLE POINT ENERGY     -1853.951313560034
FINAL SINGLE POINT ENERGY     -1853.952317399588
FINAL SINGLE POINT ENERGY     -1853.952859824112
FINAL SINGLE POINT ENERGY     -1853.953308513709
FINAL SINGLE POINT ENERGY     -1853.953691730646
FINAL SINGLE POINT ENERGY     -1853.954363590667
FINAL SINGLE POINT ENERGY     -1853.954420115496
FINAL SINGLE POINT ENERGY     -1853.954509476111
FINAL SINGLE POINT ENERGY     -1853.954519257466
FINAL SINGLE POINT ENERGY     -1853.954493786671
FINAL SINGLE POINT ENERGY     -1853.954589786101
FINAL SINGLE POINT ENERGY     -1853.954597794285
Dispersion correction            ... done
Dispersion correction           -0.029587512
FINAL SINGLE POINT ENERGY     -1853.954591425972
Dispersion correction            ... done
Dispersion correction           -0.029585728
FINAL SINGLE POINT ENERGY     -1853.954595812550
Dispersion correction            ... done
                    ***********************HURRAY********************

CARTESIAN COORDINATES (ANGSTROEM)
---------------------------------
  C      3.844448   -0.797963   -1.079630
  O      3.409352   -1.604697   -1.916931
  O      4.887223   -0.120273   -1.040415
  C      2.906484   -0.566402    0.173469
  C      2.183657    0.813513    0.154834
  C      0.984860    0.906165    1.050642
  C     -0.439053    1.215929    0.690151
  C     -1.269851   -0.014549    0.185739
  C     -2.817708    0.208223    0.154339
  C     -3.597725   -0.797464   -0.750786
  F      1.921054   -1.518271    0.260672
  F      3.615620   -0.651422    1.343819
  F      3.083164    1.783412    0.508963
  F      1.794817    1.069005   -1.126050
  F      1.167274    0.487749    2.298674
  F     -1.066144    1.690288    1.803266
  F     -0.479791    2.173922   -0.267196
  F     -1.014843   -1.057640    1.008671
  F     -0.842780   -0.337234   -1.056052
  F     -3.094457    1.452426   -0.293759
  F     -3.298252    0.085991    1.409131
  F     -3.238080   -2.056670   -0.479490
  F     -4.907549   -0.666278   -0.514413
  F     -3.374343   -0.550641   -2.043266

 Multiplicity           Mult            ....    2
 Number of Electrons    NEL             ....  191
 Basis Dimension        Dim             ....  744

ORBITAL ENERGIES
----------------
                 SPIN UP ORBITALS
  NO   OCC          E(Eh)            E(eV)
   0   1.0000     -24.662530      -671.1016
   1   1.0000     -24.659638      -671.0229
   2   1.0000     -24.658603      -670.9947
   3   1.0000     -24.657917      -670.9760
   4   1.0000     -24.657186      -670.9561
   5   1.0000     -24.656603      -670.9403
   6   1.0000     -24.656203      -670.9294
   7   1.0000     -24.655420      -670.9081
   8   1.0000     -24.648580      -670.7220
   9   1.0000     -24.648319      -670.7149
  10   1.0000     -24.635504      -670.3661
  11   1.0000     -24.628014      -670.1623
  12   1.0000     -24.613159      -669.7581
  13   1.0000     -24.612711      -669.7459
  14   1.0000     -18.987828      -516.6851
  15   1.0000     -18.986164      -516.6398
  16   1.0000     -10.393841      -282.8308
  17   1.0000     -10.340908      -281.3904
  18   1.0000     -10.337969      -281.3104
  19   1.0000     -10.337531      -281.2985
  20   1.0000     -10.314493      -280.6716
  21   1.0000     -10.276619      -279.6410
  22   1.0000     -10.254786      -279.0469
  23   1.0000     -10.189071      -277.2587
  24   1.0000      -1.320445       -35.9311
  25   1.0000      -1.291518       -35.1440
  26   1.0000      -1.275738       -34.7146
  27   1.0000      -1.270086       -34.5608
  28   1.0000      -1.258771       -34.2529
  29   1.0000      -1.250788       -34.0357
  30   1.0000      -1.234919       -33.6039
  31   1.0000      -1.229814       -33.4649
  32   1.0000      -1.229277       -33.4503
  33   1.0000      -1.226000       -33.3612
  34   1.0000      -1.218926       -33.1687
  35   1.0000      -1.212616       -32.9970
  36   1.0000      -1.196535       -32.5594
  37   1.0000      -1.173619       -31.9358
  38   1.0000      -0.996120       -27.1058
  39   1.0000      -0.914833       -24.8939
  40   1.0000      -0.825984       -22.4762
  41   1.0000      -0.804769       -21.8989
  42   1.0000      -0.765986       -20.8436
  43   1.0000      -0.729641       -19.8545
  44   1.0000      -0.685457       -18.6522
  45   1.0000      -0.661747       -18.0070
  46   1.0000      -0.632764       -17.2184
  47   1.0000      -0.617614       -16.8061
  48   1.0000      -0.614395       -16.7185
  49   1.0000      -0.607392       -16.5280
  50   1.0000      -0.593761       -16.1571
  51   1.0000      -0.588431       -16.0120
  52   1.0000      -0.587409       -15.9842
  53   1.0000      -0.577583       -15.7168
  54   1.0000      -0.573222       -15.5982
  55   1.0000      -0.561603       -15.2820
  56   1.0000      -0.560236       -15.2448
  57   1.0000      -0.549704       -14.9582
  58   1.0000      -0.548761       -14.9325
  59   1.0000      -0.531116       -14.4524
  60   1.0000      -0.519753       -14.1432
  61   1.0000      -0.495175       -13.4744
  62   1.0000      -0.482165       -13.1204
  63   1.0000      -0.477267       -12.9871
  64   1.0000      -0.472115       -12.8469
  65   1.0000      -0.468032       -12.7358
  66   1.0000      -0.464372       -12.6362
  67   1.0000      -0.456957       -12.4344
  68   1.0000      -0.452951       -12.3254
  69   1.0000      -0.449339       -12.2271
  70   1.0000      -0.442331       -12.0364
  71   1.0000      -0.439580       -11.9616
  72   1.0000      -0.436977       -11.8908
  73   1.0000      -0.433494       -11.7960
  74   1.0000      -0.432594       -11.7715
  75   1.0000      -0.429588       -11.6897
  76   1.0000      -0.421743       -11.4762
  77   1.0000      -0.421422       -11.4675
  78   1.0000      -0.417965       -11.3734
  79   1.0000      -0.414261       -11.2726
  80   1.0000      -0.411947       -11.2096
  81   1.0000      -0.410709       -11.1759
  82   1.0000      -0.409585       -11.1454
  83   1.0000      -0.399485       -10.8705
  84   1.0000      -0.397806       -10.8249
  85   1.0000      -0.388479       -10.5710
  86   1.0000      -0.381451       -10.3798
  87   1.0000      -0.378243       -10.2925
  88   1.0000      -0.373783       -10.1712
  89   1.0000      -0.362790        -9.8720
  90   1.0000      -0.346956        -9.4411
  91   1.0000      -0.329140        -8.9563
  92   1.0000      -0.249795        -6.7973
  93   1.0000      -0.231470        -6.2986
  94   1.0000      -0.215742        -5.8706
  95   1.0000      -0.214935        -5.8487
  96   0.0000      -0.012205        -0.3321
  97   0.0000       0.009726         0.2647
  98   0.0000       0.014842         0.4039
  99   0.0000       0.041852         1.1389
 100   0.0000       0.064626         1.7586

                 SPIN DOWN ORBITALS
  NO   OCC          E(Eh)            E(eV)
   0   1.0000     -24.659642      -671.0230
   1   1.0000     -24.658601      -670.9946
   2   1.0000     -24.658285      -670.9861
   3   1.0000     -24.657875      -670.9749
   4   1.0000     -24.657194      -670.9564
   5   1.0000     -24.656587      -670.9398
   6   1.0000     -24.656194      -670.9291
   7   1.0000     -24.655417      -670.9080
   8   1.0000     -24.648136      -670.7099
   9   1.0000     -24.647880      -670.7029
  10   1.0000     -24.635433      -670.3642
  11   1.0000     -24.626839      -670.1304
  12   1.0000     -24.613004      -669.7539
  13   1.0000     -24.612668      -669.7447
  14   1.0000     -18.987587      -516.6785
  15   1.0000     -18.986127      -516.6388
  16   1.0000     -10.393775      -282.8290
  17   1.0000     -10.340745      -281.3860
  18   1.0000     -10.338501      -281.3249
  19   1.0000     -10.337167      -281.2886
  20   1.0000     -10.315351      -280.6950
  21   1.0000     -10.276100      -279.6269
  22   1.0000     -10.239237      -278.6238
  23   1.0000     -10.189039      -277.2578
  24   1.0000      -1.320398       -35.9299
  25   1.0000      -1.291078       -35.1320
  26   1.0000      -1.275307       -34.7029
  27   1.0000      -1.268587       -34.5200
  28   1.0000      -1.256280       -34.1851
  29   1.0000      -1.245339       -33.8874
  30   1.0000      -1.234861       -33.6023
  31   1.0000      -1.229762       -33.4635
  32   1.0000      -1.228900       -33.4401
  33   1.0000      -1.225824       -33.3564
  34   1.0000      -1.218826       -33.1660
  35   1.0000      -1.211643       -32.9705
  36   1.0000      -1.194956       -32.5164
  37   1.0000      -1.173351       -31.9285
  38   1.0000      -0.995879       -27.0992
  39   1.0000      -0.914547       -24.8861
  40   1.0000      -0.818666       -22.2770
  41   1.0000      -0.795992       -21.6600
  42   1.0000      -0.764420       -20.8009
  43   1.0000      -0.724173       -19.7058
  44   1.0000      -0.681688       -18.5497
  45   1.0000      -0.660971       -17.9859
  46   1.0000      -0.629111       -17.1190
  47   1.0000      -0.616219       -16.7682
  48   1.0000      -0.612856       -16.6767
  49   1.0000      -0.607203       -16.5228
  50   1.0000      -0.592292       -16.1171
  51   1.0000      -0.587071       -15.9750
  52   1.0000      -0.584085       -15.8937
  53   1.0000      -0.576290       -15.6817
  54   1.0000      -0.571599       -15.5540
  55   1.0000      -0.559565       -15.2265
  56   1.0000      -0.557681       -15.1753
  57   1.0000      -0.548623       -14.9288
  58   1.0000      -0.547734       -14.9046
  59   1.0000      -0.529503       -14.4085
  60   1.0000      -0.518531       -14.1099
  61   1.0000      -0.482177       -13.1207
  62   1.0000      -0.477629       -12.9970
  63   1.0000      -0.472771       -12.8648
  64   1.0000      -0.469108       -12.7651
  65   1.0000      -0.466652       -12.6983
  66   1.0000      -0.463998       -12.6260
  67   1.0000      -0.455159       -12.3855
  68   1.0000      -0.452033       -12.3005
  69   1.0000      -0.447839       -12.1863
  70   1.0000      -0.441005       -12.0004
  71   1.0000      -0.439156       -11.9500
  72   1.0000      -0.436132       -11.8678
  73   1.0000      -0.432619       -11.7722
  74   1.0000      -0.430302       -11.7091
  75   1.0000      -0.428602       -11.6628
  76   1.0000      -0.421585       -11.4719
  77   1.0000      -0.420106       -11.4317
  78   1.0000      -0.417686       -11.3658
  79   1.0000      -0.413391       -11.2489
  80   1.0000      -0.411045       -11.1851
  81   1.0000      -0.410121       -11.1600
  82   1.0000      -0.408643       -11.1197
  83   1.0000      -0.398817       -10.8524
  84   1.0000      -0.396625       -10.7927
  85   1.0000      -0.387273       -10.5382
  86   1.0000      -0.380918       -10.3653
  87   1.0000      -0.377169       -10.2633
  88   1.0000      -0.373431       -10.1616
  89   1.0000      -0.362484        -9.8637
  90   1.0000      -0.343827        -9.3560
  91   1.0000      -0.327297        -8.9062
  92   1.0000      -0.231283        -6.2935
  93   1.0000      -0.217070        -5.9068
  94   1.0000      -0.214683        -5.8418
  95   0.0000      -0.125369        -3.4115
  96   0.0000      -0.008180        -0.2226
  97   0.0000       0.015876         0.4320
  98   0.0000       0.016085         0.4377
  99   0.0000       0.045614         1.2412

MULLIKEN ATOMIC CHARGES AND SPIN POPULATIONS
--------------------------------------------
   0 C :    0.170753   -0.000085
   1 O :   -0.480313    0.008308
   2 O :   -0.493216    0.001550
   3 C :    0.309130    0.013011
   4 C :    0.303401   -0.015410
   5 C :    0.102197    0.853555
   6 C :    0.352292   -0.024919
   7 C :    0.254526    0.035824
   8 C :    0.301210    0.006007
   9 C :    0.409729    0.002883
  10 F :   -0.201618    0.000119
  11 F :   -0.202267    0.003265
  12 F :   -0.176155    0.021967
  13 F :   -0.179521    0.000271
  14 F :   -0.137307    0.080261
  15 F :   -0.160589    0.007392
  16 F :   -0.153451    0.006589
  17 F :   -0.159276   -0.000866
  18 F :   -0.159993   -0.000489
  19 F :   -0.148690   -0.000199
  20 F :   -0.146282    0.000198
  21 F :   -0.136595   -0.000074
  22 F :   -0.134128    0.000804
  23 F :   -0.133838    0.000039
Sum of atomic charges         :   -1.0000000

LOEWDIN ATOMIC CHARGES AND SPIN POPULATIONS
-------------------------------------------
   0 C :   -0.690706    0.002480
   1 O :   -0.048688    0.007622
   2 O :   -0.054268    0.001255
   3 C :   -0.430845    0.016006
   4 C :   -0.476866    0.056177
   5 C :   -0.166158    0.657762
   6 C :   -0.480908    0.067858
   7 C :   -0.457665    0.026823
   8 C :   -0.465874    0.006891
   9 C :   -0.667859    0.001972
  10 F :    0.158457    0.001548
  11 F :    0.155321    0.003823
  12 F :    0.182118    0.024525
  13 F :    0.201288    0.001991
  14 F :    0.252281    0.103861
  15 F :    0.206757    0.008531
  16 F :    0.214932    0.008707
  17 F :    0.221676    0.000441
  18 F :    0.222688    0.000655
  19 F :    0.222731   -0.000141
  20 F :    0.223281    0.000303
  21 F :    0.225620   -0.000076
  22 F :    0.224911    0.000923
  23 F :    0.227776    0.000064

  Mayer bond orders larger than 0.100000
B(  0-C ,  1-O ) :   1.8691 B(  0-C ,  2-O ) :   1.8480 B(  0-C ,  3-C ) :   0.8467
B(  3-C ,  4-C ) :   0.9199 B(  3-C , 10-F ) :   1.0342 B(  3-C , 11-F ) :   1.0398
B(  4-C ,  5-C ) :   1.0426 B(  4-C , 12-F ) :   1.0695 B(  4-C , 13-F ) :   1.0612
B(  5-C ,  6-C ) :   1.0300 B(  5-C , 14-F ) :   1.1299 B(  6-C ,  7-C ) :   0.9346
B(  6-C , 15-F ) :   1.0734 B(  6-C , 16-F ) :   1.1090 B(  7-C ,  8-C ) :   0.9284
B(  7-C , 17-F ) :   1.0751 B(  7-C , 18-F ) :   1.0816 B(  8-C ,  9-C ) :   0.9686
B(  8-C , 19-F ) :   1.1020 B(  8-C , 20-F ) :   1.1112 B(  9-C , 21-F ) :   1.1588
B(  9-C , 22-F ) :   1.1609 B(  9-C , 23-F ) :   1.1701

Dispersion correction           -0.029585967
FINAL SINGLE POINT ENERGY     -1853.954596309099

DIPOLE MOMENT
-------------
                                X             Y             Z
Electronic contribution:    -15.22486       2.54823       4.41896
Nuclear contribution   :      8.13575      -1.12659      -2.23265
                        -----------------------------------------
Total Dipole Moment    :     -7.08910       1.42164       2.18632
                        -----------------------------------------
Magnitude (a.u.)       :      7.55357
Magnitude (Debye)      :     19.19965

Rotational constants in cm-1:     0.016097     0.004866     0.004466
Rotational constants in MHz :   482.579772   145.892273   133.902004

                             ****ORCA TERMINATED NORMALLY****
TOTAL RUN TIME: 0 days 1 hours 2 minutes 10 seconds 36 msec
