                         Program Version 6.0.1  -  RELEASE   -
|  1> !r2scanh def2-TZVP opt d3 TightSCF SlowConv defgrid2
|  2>
|  3> %pal
|  4> nprocs 20
|  5> end
|  6>
|  7> %scf
|  8> MaxIter 1500
|  9> end
| 10>
| 11> %maxcore 8000
| 12>
| 13> !CPCM
| 14> %cpcm smd true
| 15> SMDsolvent "ACETONITRILE"
| 16> end
| 17>
| 18> * xyz -1 2
| 19> 6        6.857281000     27.901753000      3.100720000
| 20> 6        6.154045000     26.704598000      2.411136000
| 21> 6        7.086540000     25.482838000      2.185614000
| 22> 6        6.299617000     24.171731000      1.900071000
| 23> 6        7.185882000     23.070259000      1.248992000
| 24> 6        6.565391000     21.647303000      1.360367000
| 25> 6        7.185682000     20.616666000      0.394673000
| 26> 6        6.843395000     19.121603000      0.784431000
| 27> 9        8.006807000     28.182557000      2.503586000
| 28> 9        7.082781000     27.647576000      4.378926000
| 29> 9        6.067589000     28.966668000      3.018349000
| 30> 9        5.116419000     26.361022000      3.182511000
| 31> 9        5.702796000     27.135986000      1.230361000
| 32> 9        7.887906000     25.777720000      1.156932000
| 33> 9        7.829892000     25.318192000      3.287322000
| 34> 9        5.806495000     23.745652000      3.066653000
| 35> 9        5.287432000     24.474179000      1.076604000
| 36> 9        7.350610000     23.413929000     -0.034316000
| 37> 9        6.756127000     21.255165000      2.631171000
| 38> 9        5.250982000     21.784657000      1.133609000
| 39> 9        6.706597000     20.903759000     -0.845345000
| 40> 9        8.519171000     20.869305000      0.364164000
| 41> 8        7.813742000     18.363469000      0.789216000
| 42> 8        5.634556000     18.967368000      0.997889000
| 43> 8        2.818390000     18.736600000      1.412613000
| 44> 1        2.716934000     17.791620000      1.243556000
| 45> 1        3.748071000     18.906228000      1.215687000
| 46> *
| 47>
| 48>                          ****END OF INPUT****
 Total Charge           Charge          ....   -1
 Multiplicity           Mult            ....    2
 Number of Electrons    NEL             ....  201
Dispersion correction           -0.008598712
FINAL SINGLE POINT ENERGY     -1929.535202575796
Dispersion correction             ... done (  0.1 sec)
Dispersion correction           -0.008566179
FINAL SINGLE POINT ENERGY     -1929.542314313040
Dispersion correction             ... done (  0.0 sec)
Dispersion correction           -0.008602010
FINAL SINGLE POINT ENERGY     -1929.545638100377
Dispersion correction             ... done (  0.0 sec)
FINAL SINGLE POINT ENERGY     -1929.546727607838
FINAL SINGLE POINT ENERGY     -1929.547623343520
FINAL SINGLE POINT ENERGY     -1929.548398727740
FINAL SINGLE POINT ENERGY     -1929.549138164321
FINAL SINGLE POINT ENERGY     -1929.549463666691
FINAL SINGLE POINT ENERGY     -1929.549603956453
FINAL SINGLE POINT ENERGY     -1929.549820899787
FINAL SINGLE POINT ENERGY     -1929.551630966430
FINAL SINGLE POINT ENERGY     -1929.551752840197
FINAL SINGLE POINT ENERGY     -1929.551762373562
FINAL SINGLE POINT ENERGY     -1929.551768051605
FINAL SINGLE POINT ENERGY     -1929.551769561615
FINAL SINGLE POINT ENERGY     -1929.551771110205
FINAL SINGLE POINT ENERGY     -1929.551511598055
Dispersion correction             ... done (  0.0 sec)
Dispersion correction           -0.009087002
FINAL SINGLE POINT ENERGY     -1929.551772278098
Dispersion correction             ... done (  0.0 sec)
Dispersion correction           -0.009086856
FINAL SINGLE POINT ENERGY     -1929.551777405466
Dispersion correction             ... done (  0.0 sec)
                    ***********************HURRAY********************

CARTESIAN COORDINATES (ANGSTROEM)
---------------------------------
  C      7.930283   27.233140    2.969767
  C      6.628072   26.696745    2.315146
  C      6.692988   25.194917    1.920586
  C      5.309028   24.533260    1.652052
  C      5.403467   23.203417    0.974813
  C      5.563560   21.854049    1.596236
  C      6.743681   21.030287    1.025573
  C      7.091762   19.781561    1.910322
  F      8.989186   26.903660    2.237849
  F      8.080505   26.746625    4.193987
  F      7.857092   28.557200    3.046059
  F      5.625343   26.898401    3.183942
  F      6.398834   27.422622    1.211937
  F      7.426406   25.091920    0.798755
  F      7.302806   24.506133    2.899383
  F      4.660860   24.412432    2.824118
  F      4.612714   25.374528    0.853110
  F      5.492877   23.250667   -0.341391
  F      5.764572   22.001917    2.926771
  F      4.421262   21.137717    1.432324
  F      6.423091   20.654604   -0.239964
  F      7.798192   21.882735    0.923892
  O      8.106687   19.882983    2.597539
  O      6.270205   18.850598    1.802523
  O      4.187723   18.202695    0.128643
  H      4.594899   17.478416   -0.354346
  H      4.905033   18.535176    0.705866

 Multiplicity           Mult            ....    2
 Number of Electrons    NEL             ....  201
 Basis Dimension        Dim             ....  787

ORBITAL ENERGIES
----------------
                 SPIN UP ORBITALS
  NO   OCC          E(Eh)            E(eV)
   0   1.0000     -24.735261      -673.0807
   1   1.0000     -24.731234      -672.9711
   2   1.0000     -24.730090      -672.9400
   3   1.0000     -24.729570      -672.9258
   4   1.0000     -24.729477      -672.9233
   5   1.0000     -24.729462      -672.9229
   6   1.0000     -24.728219      -672.8890
   7   1.0000     -24.728199      -672.8885
   8   1.0000     -24.721198      -672.6980
   9   1.0000     -24.721162      -672.6970
  10   1.0000     -24.709198      -672.3715
  11   1.0000     -24.701616      -672.1651
  12   1.0000     -24.689083      -671.8241
  13   1.0000     -24.688966      -671.8209
  14   1.0000     -19.072335      -518.9846
  15   1.0000     -19.060914      -518.6738
  16   1.0000     -19.057547      -518.5822
  17   1.0000     -10.438595      -284.0486
  18   1.0000     -10.383101      -282.5386
  19   1.0000     -10.380972      -282.4806
  20   1.0000     -10.380802      -282.4760
  21   1.0000     -10.359947      -281.9085
  22   1.0000     -10.325314      -280.9661
  23   1.0000     -10.299576      -280.2657
  24   1.0000     -10.243307      -278.7346
  25   1.0000      -1.360310       -37.0159
  26   1.0000      -1.330703       -36.2103
  27   1.0000      -1.314040       -35.7569
  28   1.0000      -1.308495       -35.6060
  29   1.0000      -1.298514       -35.3344
  30   1.0000      -1.289362       -35.0853
  31   1.0000      -1.271610       -34.6023
  32   1.0000      -1.271199       -34.5911
  33   1.0000      -1.265548       -34.4373
  34   1.0000      -1.262096       -34.3434
  35   1.0000      -1.254587       -34.1390
  36   1.0000      -1.248885       -33.9839
  37   1.0000      -1.234131       -33.5824
  38   1.0000      -1.213608       -33.0239
  39   1.0000      -1.039800       -28.2944
  40   1.0000      -0.973890       -26.5009
  41   1.0000      -0.953630       -25.9496
  42   1.0000      -0.849477       -23.1154
  43   1.0000      -0.827218       -22.5098
  44   1.0000      -0.789009       -21.4700
  45   1.0000      -0.751684       -20.4544
  46   1.0000      -0.707360       -19.2482
  47   1.0000      -0.682476       -18.5711
  48   1.0000      -0.653963       -17.7952
  49   1.0000      -0.636642       -17.3239
  50   1.0000      -0.633903       -17.2494
  51   1.0000      -0.626725       -17.0541
  52   1.0000      -0.613483       -16.6937
  53   1.0000      -0.607922       -16.5424
  54   1.0000      -0.606230       -16.4964
  55   1.0000      -0.597598       -16.2615
  56   1.0000      -0.592591       -16.1252
  57   1.0000      -0.582454       -15.8494
  58   1.0000      -0.579802       -15.7772
  59   1.0000      -0.569104       -15.4861
  60   1.0000      -0.568782       -15.4773
  61   1.0000      -0.552349       -15.0302
  62   1.0000      -0.542193       -14.7538
  63   1.0000      -0.514477       -13.9996
  64   1.0000      -0.499507       -13.5923
  65   1.0000      -0.494576       -13.4581
  66   1.0000      -0.492432       -13.3998
  67   1.0000      -0.489169       -13.3110
  68   1.0000      -0.485005       -13.1977
  69   1.0000      -0.481336       -13.0978
  70   1.0000      -0.474954       -12.9242
  71   1.0000      -0.471053       -12.8180
  72   1.0000      -0.466262       -12.6876
  73   1.0000      -0.458967       -12.4891
  74   1.0000      -0.457455       -12.4480
  75   1.0000      -0.453025       -12.3274
  76   1.0000      -0.449445       -12.2300
  77   1.0000      -0.448042       -12.1918
  78   1.0000      -0.447174       -12.1682
  79   1.0000      -0.438487       -11.9318
  80   1.0000      -0.437019       -11.8919
  81   1.0000      -0.433569       -11.7980
  82   1.0000      -0.430366       -11.7109
  83   1.0000      -0.427852       -11.6424
  84   1.0000      -0.425926       -11.5900
  85   1.0000      -0.425146       -11.5688
  86   1.0000      -0.418190       -11.3795
  87   1.0000      -0.414572       -11.2811
  88   1.0000      -0.403739       -10.9863
  89   1.0000      -0.402270       -10.9463
  90   1.0000      -0.397875       -10.8267
  91   1.0000      -0.392391       -10.6775
  92   1.0000      -0.384702       -10.4683
  93   1.0000      -0.357324        -9.7233
  94   1.0000      -0.343084        -9.3358
  95   1.0000      -0.337832        -9.1929
  96   1.0000      -0.269152        -7.3240
  97   1.0000      -0.260109        -7.0779
  98   1.0000      -0.251709        -6.8494
  99   1.0000      -0.237102        -6.4519
 100   1.0000      -0.230660        -6.2766
 101   0.0000      -0.007015        -0.1909
 102   0.0000       0.016443         0.4474
 103   0.0000       0.018691         0.5086
 104   0.0000       0.047499         1.2925
 105   0.0000       0.071805         1.9539

                 SPIN DOWN ORBITALS
  NO   OCC          E(Eh)            E(eV)
   0   1.0000     -24.731239      -672.9712
   1   1.0000     -24.730234      -672.9439
   2   1.0000     -24.730089      -672.9399
   3   1.0000     -24.729579      -672.9261
   4   1.0000     -24.729442      -672.9223
   5   1.0000     -24.729425      -672.9219
   6   1.0000     -24.728209      -672.8888
   7   1.0000     -24.728181      -672.8880
   8   1.0000     -24.720668      -672.6836
   9   1.0000     -24.720550      -672.6804
  10   1.0000     -24.709042      -672.3672
  11   1.0000     -24.700051      -672.1226
  12   1.0000     -24.689018      -671.8223
  13   1.0000     -24.688821      -671.8170
  14   1.0000     -19.072334      -518.9846
  15   1.0000     -19.060878      -518.6729
  16   1.0000     -19.057362      -518.5772
  17   1.0000     -10.438528      -284.0468
  18   1.0000     -10.382945      -282.5343
  19   1.0000     -10.382068      -282.5104
  20   1.0000     -10.380021      -282.4547
  21   1.0000     -10.360962      -281.9361
  22   1.0000     -10.324835      -280.9531
  23   1.0000     -10.282681      -279.8060
  24   1.0000     -10.243280      -278.7338
  25   1.0000      -1.360255       -37.0144
  26   1.0000      -1.330186       -36.1962
  27   1.0000      -1.313520       -35.7427
  28   1.0000      -1.306971       -35.5645
  29   1.0000      -1.296350       -35.2755
  30   1.0000      -1.282664       -34.9031
  31   1.0000      -1.271166       -34.5902
  32   1.0000      -1.271060       -34.5873
  33   1.0000      -1.265488       -34.4357
  34   1.0000      -1.261861       -34.3370
  35   1.0000      -1.254479       -34.1361
  36   1.0000      -1.247718       -33.9521
  37   1.0000      -1.232192       -33.5296
  38   1.0000      -1.213295       -33.0154
  39   1.0000      -1.039630       -28.2898
  40   1.0000      -0.973876       -26.5005
  41   1.0000      -0.953428       -25.9441
  42   1.0000      -0.840373       -22.8677
  43   1.0000      -0.816626       -22.2215
  44   1.0000      -0.787336       -21.4245
  45   1.0000      -0.744674       -20.2636
  46   1.0000      -0.703201       -19.1351
  47   1.0000      -0.681524       -18.5452
  48   1.0000      -0.649315       -17.6688
  49   1.0000      -0.635056       -17.2807
  50   1.0000      -0.632262       -17.2047
  51   1.0000      -0.626537       -17.0490
  52   1.0000      -0.612016       -16.6538
  53   1.0000      -0.606709       -16.5094
  54   1.0000      -0.602579       -16.3970
  55   1.0000      -0.596280       -16.2256
  56   1.0000      -0.591330       -16.0909
  57   1.0000      -0.579290       -15.7633
  58   1.0000      -0.578589       -15.7442
  59   1.0000      -0.568629       -15.4732
  60   1.0000      -0.566852       -15.4248
  61   1.0000      -0.550304       -14.9745
  62   1.0000      -0.540602       -14.7105
  63   1.0000      -0.499404       -13.5895
  64   1.0000      -0.495072       -13.4716
  65   1.0000      -0.493242       -13.4218
  66   1.0000      -0.489669       -13.3246
  67   1.0000      -0.485354       -13.2072
  68   1.0000      -0.483447       -13.1553
  69   1.0000      -0.480915       -13.0864
  70   1.0000      -0.472418       -12.8552
  71   1.0000      -0.469768       -12.7830
  72   1.0000      -0.464945       -12.6518
  73   1.0000      -0.457647       -12.4532
  74   1.0000      -0.456577       -12.4241
  75   1.0000      -0.452368       -12.3095
  76   1.0000      -0.447913       -12.1883
  77   1.0000      -0.446311       -12.1447
  78   1.0000      -0.445143       -12.1130
  79   1.0000      -0.436950       -11.8900
  80   1.0000      -0.436543       -11.8789
  81   1.0000      -0.433274       -11.7900
  82   1.0000      -0.429119       -11.6769
  83   1.0000      -0.426629       -11.6092
  84   1.0000      -0.425177       -11.5697
  85   1.0000      -0.424673       -11.5559
  86   1.0000      -0.417295       -11.3552
  87   1.0000      -0.413291       -11.2462
  88   1.0000      -0.402050       -10.9403
  89   1.0000      -0.401712       -10.9311
  90   1.0000      -0.397587       -10.8189
  91   1.0000      -0.389973       -10.6117
  92   1.0000      -0.384451       -10.4614
  93   1.0000      -0.353846        -9.6286
  94   1.0000      -0.342943        -9.3319
  95   1.0000      -0.334958        -9.1147
  96   1.0000      -0.269133        -7.3235
  97   1.0000      -0.251540        -6.8447
  98   1.0000      -0.237097        -6.4517
  99   1.0000      -0.232219        -6.3190
 100   0.0000      -0.116999        -3.1837
 101   0.0000      -0.004908        -0.1336
 102   0.0000       0.019006         0.5172
 103   0.0000       0.023728         0.6457
 104   0.0000       0.051328         1.3967

MULLIKEN ATOMIC CHARGES AND SPIN POPULATIONS
--------------------------------------------
   0 C :    0.472930    0.002707
   1 C :    0.333247    0.005237
   2 C :    0.273712    0.032995
   3 C :    0.409073   -0.026630
   4 C :    0.087516    0.845258
   5 C :    0.343615   -0.016838
   6 C :    0.340295    0.011535
   7 C :    0.262109   -0.000360
   8 F :   -0.156752   -0.000062
   9 F :   -0.154845    0.000043
  10 F :   -0.154778    0.000919
  11 F :   -0.164409   -0.000116
  12 F :   -0.162336    0.000240
  13 F :   -0.172605    0.000270
  14 F :   -0.172754    0.000380
  15 F :   -0.169263    0.007135
  16 F :   -0.174906    0.010697
  17 F :   -0.152588    0.088384
  18 F :   -0.192227    0.002014
  19 F :   -0.184226    0.026143
  20 F :   -0.209230    0.002633
  21 F :   -0.207776    0.000671
  22 O :   -0.490051    0.005508
  23 O :   -0.553388    0.001134
  24 O :   -0.747769    0.000004
  25 H :    0.335630    0.000012
  26 H :    0.361777    0.000087
Sum of atomic charges         :   -1.0000000

LOEWDIN ATOMIC CHARGES AND SPIN POPULATIONS
-------------------------------------------
   0 C :   -0.679024    0.001984
   1 C :   -0.478212    0.006619
   2 C :   -0.470275    0.026684
   3 C :   -0.492510    0.064068
   4 C :   -0.167026    0.662159
   5 C :   -0.488492    0.053624
   6 C :   -0.447763    0.013757
   7 C :   -0.671974    0.001823
   8 F :    0.230272   -0.000084
   9 F :    0.232183    0.000055
  10 F :    0.229995    0.000989
  11 F :    0.228749   -0.000117
  12 F :    0.228974    0.000278
  13 F :    0.227762    0.000786
  14 F :    0.229551    0.000766
  15 F :    0.222730    0.008493
  16 F :    0.213175    0.010993
  17 F :    0.257174    0.104914
  18 F :    0.207853    0.003421
  19 F :    0.195833    0.028023
  20 F :    0.171621    0.003107
  21 F :    0.173589    0.001632
  22 O :   -0.025642    0.004960
  23 O :   -0.051626    0.001007
  24 O :   -0.368188    0.000041
  25 H :    0.153677    0.000008
  26 H :    0.137594    0.000011

  Mayer bond orders larger than 0.100000
B(  0-C ,  1-C ) :   0.9497 B(  0-C ,  8-F ) :   1.1298 B(  0-C ,  9-F ) :   1.1416
B(  0-C , 10-F ) :   1.1318 B(  1-C ,  2-C ) :   0.9198 B(  1-C , 11-F ) :   1.0865
B(  1-C , 12-F ) :   1.0952 B(  2-C ,  3-C ) :   0.9242 B(  2-C , 13-F ) :   1.0652
B(  2-C , 14-F ) :   1.0760 B(  3-C ,  4-C ) :   1.0060 B(  3-C , 15-F ) :   1.0918
B(  3-C , 16-F ) :   1.0625 B(  4-C ,  5-C ) :   1.0209 B(  4-C , 17-F ) :   1.1062
B(  5-C ,  6-C ) :   0.9094 B(  5-C , 18-F ) :   1.0492 B(  5-C , 19-F ) :   1.0665
B(  6-C ,  7-C ) :   0.8567 B(  6-C , 20-F ) :   1.0233 B(  6-C , 21-F ) :   1.0348
B(  7-C , 22-O ) :   1.8895 B(  7-C , 23-O ) :   1.6632 B( 23-O , 26-H ) :   0.1060
B( 24-O , 25-H ) :   0.8993 B( 24-O , 26-H ) :   0.8125

Dispersion correction           -0.009088623
FINAL SINGLE POINT ENERGY     -1929.551778622582

DIPOLE MOMENT
-------------

Method             : SCF
Type of density    : Electron Density
Multiplicity       :   2
Irrep              :   0
Energy             : -1929.5426899998765293 Eh
Relativity type    :
Basis              : AO
                                X                 Y                 Z
Electronic contribution:      3.957876074      29.947558003       3.654741475
Nuclear contribution   :     -3.937691103     -22.738993309      -3.846727299
                        -----------------------------------------
Total Dipole Moment    :      0.020184971       7.208564694      -0.191985823
                        -----------------------------------------
Magnitude (a.u.)       :      7.211149072
Magnitude (Debye)      :     18.329284288

Rotational constants in cm-1:             0.016166             0.004021             0.003745
Rotational constants in MHz :           484.635487           120.561257           112.258688

                             ****ORCA TERMINATED NORMALLY****
TOTAL RUN TIME: 0 days 0 hours 51 minutes 34 seconds 162 msec
