                         Program Version 6.0.1  -  RELEASE   -
|  1> !r2scanh def2-TZVP opt d3 TightSCF SlowConv defgrid2
|  2>
|  3> %pal
|  4> nprocs 20
|  5> end
|  6>
|  7> %scf
|  8> MaxIter 1500
|  9> end
| 10>
| 11> %maxcore 8000
| 12>
| 13> !CPCM
| 14> %cpcm smd true
| 15> SMDsolvent "ACETONITRILE"
| 16> end
| 17>
| 18> * xyz 0 2
| 19> 6        4.790427000     -0.033865800     -0.529943200
| 20> 8        5.449345000     -1.206924000     -0.894594600
| 21> 8        4.978223000      1.323071000     -0.737377200
| 22> 6        3.506687600     -0.338741600      0.376153800
| 23> 6        2.222300000      0.400524800     -0.110681600
| 24> 6        0.900506800     -0.386389800      0.175703000
| 25> 6       -0.395261200      0.487294000      0.065549000
| 26> 6       -1.705693600     -0.364773800     -0.068373600
| 27> 6       -3.005136200      0.445344800      0.258164000
| 28> 6       -4.319880200     -0.214526000     -0.270540800
| 29> 9        3.211587400     -1.692050400      0.412735200
| 30> 9        3.741061800      0.055285800      1.689948800
| 31> 9        2.125696800      1.616867800      0.483236600
| 32> 9        2.314152400      0.589704000     -1.455769200
| 33> 9        0.794028800     -1.413561400     -0.700839000
| 34> 9        0.958350600     -0.884509000      1.435093400
| 35> 9       -0.498373400      1.260265600      1.173340200
| 36> 9       -0.299075000      1.289512600     -1.020910800
| 37> 9       -1.641790400     -1.418189000      0.779523800
| 38> 9       -1.792381400     -0.831391600     -1.336863600
| 39> 9       -3.119771000      0.573779800      1.598579800
| 40> 9       -4.383115600     -1.504377600      0.089127600
| 41> 9       -5.365669800      0.430528600      0.260394200
| 42> 9       -4.396020400     -0.128550600     -1.602941800
| 43> 1        5.903122371     -2.014774547     -1.145719253
| 44> *
| 45>
| 46>                          ****END OF INPUT****
 Total Charge           Charge          ....    0
 Multiplicity           Mult            ....    2
 Number of Electrons    NEL             ....  191
Dispersion correction           -0.008127528
FINAL SINGLE POINT ENERGY     -1853.445240452023
Dispersion correction             ... done (  0.0 sec)
Dispersion correction           -0.008183598
FINAL SINGLE POINT ENERGY     -1853.501241776343
Dispersion correction             ... done (  0.0 sec)
Dispersion correction           -0.008218004
FINAL SINGLE POINT ENERGY     -1853.514108288928
Dispersion correction             ... done (  0.1 sec)
FINAL SINGLE POINT ENERGY     -1853.520508441424
FINAL SINGLE POINT ENERGY     -1853.520710966937
FINAL SINGLE POINT ENERGY     -1853.523620781905
FINAL SINGLE POINT ENERGY     -1853.524971454946
FINAL SINGLE POINT ENERGY     -1853.529186067049
FINAL SINGLE POINT ENERGY     -1853.535594668089
FINAL SINGLE POINT ENERGY     -1853.538753088265
FINAL SINGLE POINT ENERGY     -1853.566945891816
FINAL SINGLE POINT ENERGY     -1853.567055945980
FINAL SINGLE POINT ENERGY     -1853.567043302307
FINAL SINGLE POINT ENERGY     -1853.567105029905
FINAL SINGLE POINT ENERGY     -1853.567122096710
FINAL SINGLE POINT ENERGY     -1853.567148823182
FINAL SINGLE POINT ENERGY     -1853.567157863609
Dispersion correction             ... done (  0.0 sec)
Dispersion correction           -0.008293881
FINAL SINGLE POINT ENERGY     -1853.567162472812
Dispersion correction             ... done (  0.0 sec)
Dispersion correction           -0.008293366
FINAL SINGLE POINT ENERGY     -1853.567165633710
Dispersion correction             ... done (  0.0 sec)
                    ***********************HURRAY********************

CARTESIAN COORDINATES (ANGSTROEM)
---------------------------------
  C      4.632147    0.128043   -0.490685
  O      5.028526   -0.786388   -1.353611
  O      5.055664    1.238209   -0.359985
  C      3.469630   -0.392824    0.385001
  C      2.106226    0.081531   -0.189422
  C      0.874741   -0.646800    0.424835
  C     -0.457325    0.128207    0.205265
  C     -1.740313   -0.738755    0.373195
  C     -2.979686    0.088170    0.476807
  C     -4.018403    0.236286   -0.588249
  F      3.465102   -1.736094    0.450688
  F      3.617517    0.099985    1.623110
  F      1.995441    1.401501    0.026771
  F      2.113955   -0.139174   -1.515882
  F      0.774153   -1.861148   -0.136078
  F      1.067179   -0.795484    1.744045
  F     -0.518152    1.131398    1.095503
  F     -0.473987    0.646609   -1.033751
  F     -1.595384   -1.478622    1.494075
  F     -1.846058   -1.560413   -0.687578
  F     -3.281261    0.552886    1.667097
  F     -4.817771   -0.838739   -0.675349
  F     -4.789686    1.288451   -0.324714
  F     -3.451367    0.405356   -1.784356
  H      5.742435   -0.412636   -1.903736

 Multiplicity           Mult            ....    2
 Number of Electrons    NEL             ....  191
 Basis Dimension        Dim             ....  750

ORBITAL ENERGIES
----------------
                 SPIN UP ORBITALS
  NO   OCC          E(Eh)            E(eV)
   0   1.0000     -24.745530      -673.3601
   1   1.0000     -24.732920      -673.0170
   2   1.0000     -24.732210      -672.9976
   3   1.0000     -24.732194      -672.9972
   4   1.0000     -24.731949      -672.9906
   5   1.0000     -24.731855      -672.9880
   6   1.0000     -24.731737      -672.9848
   7   1.0000     -24.728989      -672.9100
   8   1.0000     -24.727128      -672.8594
   9   1.0000     -24.726052      -672.8301
  10   1.0000     -24.725807      -672.8234
  11   1.0000     -24.723477      -672.7600
  12   1.0000     -24.721732      -672.7125
  13   1.0000     -24.721126      -672.6960
  14   1.0000     -19.197187      -522.3820
  15   1.0000     -19.141005      -520.8532
  16   1.0000     -10.438928      -284.0577
  17   1.0000     -10.387889      -282.6688
  18   1.0000     -10.387299      -282.6528
  19   1.0000     -10.384704      -282.5822
  20   1.0000     -10.384528      -282.5774
  21   1.0000     -10.375966      -282.3444
  22   1.0000     -10.326429      -280.9964
  23   1.0000     -10.310341      -280.5586
  24   1.0000      -1.350352       -36.7449
  25   1.0000      -1.342067       -36.5195
  26   1.0000      -1.327465       -36.1221
  27   1.0000      -1.315996       -35.8101
  28   1.0000      -1.313410       -35.7397
  29   1.0000      -1.309085       -35.6220
  30   1.0000      -1.302294       -35.4372
  31   1.0000      -1.272015       -34.6133
  32   1.0000      -1.264408       -34.4063
  33   1.0000      -1.261056       -34.3151
  34   1.0000      -1.257789       -34.2262
  35   1.0000      -1.255414       -34.1615
  36   1.0000      -1.254996       -34.1502
  37   1.0000      -1.251171       -34.0461
  38   1.0000      -1.152889       -31.3717
  39   1.0000      -1.065801       -29.0019
  40   1.0000      -0.856276       -23.3004
  41   1.0000      -0.839680       -22.8489
  42   1.0000      -0.810017       -22.0417
  43   1.0000      -0.772947       -21.0330
  44   1.0000      -0.733028       -19.9467
  45   1.0000      -0.692194       -18.8355
  46   1.0000      -0.671621       -18.2757
  47   1.0000      -0.661620       -18.0036
  48   1.0000      -0.638192       -17.3661
  49   1.0000      -0.634489       -17.2653
  50   1.0000      -0.628794       -17.1104
  51   1.0000      -0.622036       -16.9265
  52   1.0000      -0.617768       -16.8103
  53   1.0000      -0.614304       -16.7161
  54   1.0000      -0.605742       -16.4831
  55   1.0000      -0.603350       -16.4180
  56   1.0000      -0.599850       -16.3227
  57   1.0000      -0.588093       -16.0028
  58   1.0000      -0.584025       -15.8921
  59   1.0000      -0.577143       -15.7049
  60   1.0000      -0.571517       -15.5518
  61   1.0000      -0.563221       -15.3260
  62   1.0000      -0.525688       -14.3047
  63   1.0000      -0.512594       -13.9484
  64   1.0000      -0.500198       -13.6111
  65   1.0000      -0.499805       -13.6004
  66   1.0000      -0.492741       -13.4082
  67   1.0000      -0.490520       -13.3477
  68   1.0000      -0.484904       -13.1949
  69   1.0000      -0.482157       -13.1202
  70   1.0000      -0.478271       -13.0144
  71   1.0000      -0.476867       -12.9762
  72   1.0000      -0.474358       -12.9080
  73   1.0000      -0.471840       -12.8394
  74   1.0000      -0.465557       -12.6684
  75   1.0000      -0.462849       -12.5948
  76   1.0000      -0.459421       -12.5015
  77   1.0000      -0.455275       -12.3887
  78   1.0000      -0.452537       -12.3142
  79   1.0000      -0.447850       -12.1866
  80   1.0000      -0.442614       -12.0441
  81   1.0000      -0.441565       -12.0156
  82   1.0000      -0.439618       -11.9626
  83   1.0000      -0.435961       -11.8631
  84   1.0000      -0.432274       -11.7628
  85   1.0000      -0.431796       -11.7498
  86   1.0000      -0.428709       -11.6658
  87   1.0000      -0.423578       -11.5261
  88   1.0000      -0.421323       -11.4648
  89   1.0000      -0.415630       -11.3099
  90   1.0000      -0.402438       -10.9509
  91   1.0000      -0.377292       -10.2666
  92   1.0000      -0.351407        -9.5623
  93   1.0000      -0.341801        -9.3009
  94   1.0000      -0.303783        -8.2664
  95   1.0000      -0.269130        -7.3234
  96   0.0000      -0.062035        -1.6881
  97   0.0000      -0.005419        -0.1474
  98   0.0000       0.006200         0.1687
  99   0.0000       0.028829         0.7845
 100   0.0000       0.051657         1.4057

                 SPIN DOWN ORBITALS
  NO   OCC          E(Eh)            E(eV)
   0   1.0000     -24.740211      -673.2154
   1   1.0000     -24.732898      -673.0164
   2   1.0000     -24.732213      -672.9977
   3   1.0000     -24.732200      -672.9974
   4   1.0000     -24.731938      -672.9903
   5   1.0000     -24.731811      -672.9868
   6   1.0000     -24.731733      -672.9847
   7   1.0000     -24.728613      -672.8998
   8   1.0000     -24.726166      -672.8332
   9   1.0000     -24.725761      -672.8222
  10   1.0000     -24.725217      -672.8073
  11   1.0000     -24.723478      -672.7600
  12   1.0000     -24.721730      -672.7125
  13   1.0000     -24.719460      -672.6507
  14   1.0000     -19.197186      -522.3820
  15   1.0000     -19.141000      -520.8531
  16   1.0000     -10.439797      -284.0813
  17   1.0000     -10.388386      -282.6824
  18   1.0000     -10.387781      -282.6659
  19   1.0000     -10.384481      -282.5761
  20   1.0000     -10.384028      -282.5638
  21   1.0000     -10.375948      -282.3439
  22   1.0000     -10.326424      -280.9963
  23   1.0000     -10.293274      -280.0942
  24   1.0000      -1.348771       -36.7019
  25   1.0000      -1.341862       -36.5139
  26   1.0000      -1.326909       -36.1070
  27   1.0000      -1.315656       -35.8008
  28   1.0000      -1.312224       -35.7074
  29   1.0000      -1.308953       -35.6184
  30   1.0000      -1.294120       -35.2148
  31   1.0000      -1.271847       -34.6087
  32   1.0000      -1.264061       -34.3969
  33   1.0000      -1.260156       -34.2906
  34   1.0000      -1.257587       -34.2207
  35   1.0000      -1.253957       -34.1219
  36   1.0000      -1.252846       -34.0917
  37   1.0000      -1.251168       -34.0460
  38   1.0000      -1.152884       -31.3716
  39   1.0000      -1.065793       -29.0017
  40   1.0000      -0.848073       -23.0772
  41   1.0000      -0.830750       -22.6059
  42   1.0000      -0.802931       -21.8489
  43   1.0000      -0.769519       -20.9397
  44   1.0000      -0.731363       -19.9014
  45   1.0000      -0.688566       -18.7368
  46   1.0000      -0.667103       -18.1528
  47   1.0000      -0.661302       -17.9950
  48   1.0000      -0.636565       -17.3218
  49   1.0000      -0.632752       -17.2181
  50   1.0000      -0.627316       -17.0701
  51   1.0000      -0.620650       -16.8888
  52   1.0000      -0.616722       -16.7818
  53   1.0000      -0.608763       -16.5653
  54   1.0000      -0.605269       -16.4702
  55   1.0000      -0.601980       -16.3807
  56   1.0000      -0.599169       -16.3042
  57   1.0000      -0.587343       -15.9824
  58   1.0000      -0.582885       -15.8611
  59   1.0000      -0.575823       -15.6689
  60   1.0000      -0.570545       -15.5253
  61   1.0000      -0.562902       -15.3173
  62   1.0000      -0.512586       -13.9482
  63   1.0000      -0.500203       -13.6112
  64   1.0000      -0.500075       -13.6077
  65   1.0000      -0.494266       -13.4497
  66   1.0000      -0.491003       -13.3609
  67   1.0000      -0.489240       -13.3129
  68   1.0000      -0.482790       -13.1374
  69   1.0000      -0.480265       -13.0687
  70   1.0000      -0.477559       -12.9950
  71   1.0000      -0.475989       -12.9523
  72   1.0000      -0.471799       -12.8383
  73   1.0000      -0.470927       -12.8146
  74   1.0000      -0.464184       -12.6311
  75   1.0000      -0.462403       -12.5826
  76   1.0000      -0.458440       -12.4748
  77   1.0000      -0.454005       -12.3541
  78   1.0000      -0.449315       -12.2265
  79   1.0000      -0.446976       -12.1628
  80   1.0000      -0.441460       -12.0127
  81   1.0000      -0.440107       -11.9759
  82   1.0000      -0.438593       -11.9347
  83   1.0000      -0.435533       -11.8515
  84   1.0000      -0.431574       -11.7437
  85   1.0000      -0.431232       -11.7344
  86   1.0000      -0.428452       -11.6588
  87   1.0000      -0.422785       -11.5046
  88   1.0000      -0.420057       -11.4303
  89   1.0000      -0.413777       -11.2594
  90   1.0000      -0.399342       -10.8667
  91   1.0000      -0.374840       -10.1999
  92   1.0000      -0.351340        -9.5605
  93   1.0000      -0.339582        -9.2405
  94   1.0000      -0.303477        -8.2580
  95   0.0000      -0.125041        -3.4026
  96   0.0000      -0.061117        -1.6631
  97   0.0000      -0.003582        -0.0975
  98   0.0000       0.011987         0.3262
  99   0.0000       0.031475         0.8565

MULLIKEN ATOMIC CHARGES AND SPIN POPULATIONS
--------------------------------------------
   0 C :    0.281683    0.000201
   1 O :   -0.365010    0.000016
   2 O :   -0.326801    0.000173
   3 C :    0.412551    0.000462
   4 C :    0.287948    0.002058
   5 C :    0.317704    0.004901
   6 C :    0.306289    0.030358
   7 C :    0.388520   -0.019966
   8 C :    0.139114    0.844945
   9 C :    0.489900   -0.022844
  10 F :   -0.173694    0.000001
  11 F :   -0.170174    0.000048
  12 F :   -0.166076    0.000030
  13 F :   -0.168762    0.000090
  14 F :   -0.164415   -0.000105
  15 F :   -0.163954    0.000219
  16 F :   -0.167961    0.000483
  17 F :   -0.169683    0.000261
  18 F :   -0.169822    0.016751
  19 F :   -0.168726    0.005982
  20 F :   -0.142089    0.094176
  21 F :   -0.169158    0.028103
  22 F :   -0.161994    0.004703
  23 F :   -0.164881    0.008926
  24 H :    0.389491    0.000028
Sum of atomic charges         :   -0.0000000

LOEWDIN ATOMIC CHARGES AND SPIN POPULATIONS
-------------------------------------------
   0 C :   -0.496793    0.000180
   1 O :    0.161388    0.000028
   2 O :    0.134122    0.000142
   3 C :   -0.464589    0.000610
   4 C :   -0.467690    0.001765
   5 C :   -0.471012    0.004887
   6 C :   -0.466932    0.022950
   7 C :   -0.492276    0.060201
   8 C :   -0.171217    0.669595
   9 C :   -0.683013    0.055071
  10 F :    0.217477   -0.000013
  11 F :    0.222674    0.000051
  12 F :    0.232870   -0.000051
  13 F :    0.228247    0.000101
  14 F :    0.231695   -0.000085
  15 F :    0.232007    0.000281
  16 F :    0.231394    0.001284
  17 F :    0.230586    0.000838
  18 F :    0.217884    0.016624
  19 F :    0.225448    0.006588
  20 F :    0.268433    0.110792
  21 F :    0.201962    0.030894
  22 F :    0.224134    0.005864
  23 F :    0.217836    0.011391
  24 H :    0.235366    0.000013

  Mayer bond orders larger than 0.100000
B(  0-C ,  1-O ) :   1.2959 B(  0-C ,  2-O ) :   2.0414 B(  0-C ,  3-C ) :   0.8820
B(  1-O , 24-H ) :   0.8168 B(  3-C ,  4-C ) :   0.9487 B(  3-C , 10-F ) :   1.0822
B(  3-C , 11-F ) :   1.0997 B(  4-C ,  5-C ) :   0.9269 B(  4-C , 12-F ) :   1.0829
B(  4-C , 13-F ) :   1.0755 B(  5-C ,  6-C ) :   0.9268 B(  5-C , 14-F ) :   1.0825
B(  5-C , 15-F ) :   1.0840 B(  6-C ,  7-C ) :   0.9365 B(  6-C , 16-F ) :   1.0774
B(  6-C , 17-F ) :   1.0763 B(  7-C ,  8-C ) :   0.9842 B(  7-C , 18-F ) :   1.0678
B(  7-C , 19-F ) :   1.0845 B(  8-C ,  9-C ) :   1.0451 B(  8-C , 20-F ) :   1.1227
B(  9-C , 21-F ) :   1.1188 B(  9-C , 22-F ) :   1.1284 B(  9-C , 23-F ) :   1.1198

Dispersion correction           -0.008292897
FINAL SINGLE POINT ENERGY     -1853.567167851580

DIPOLE MOMENT
-------------

Method             : SCF
Type of density    : Electron Density
Multiplicity       :   2
Irrep              :   0
Energy             : -1853.5588749543710492 Eh
Relativity type    :
Basis              : AO
                                X                 Y                 Z
Electronic contribution:    -13.380072686      -0.775206715       2.506706401
Nuclear contribution   :     14.006828424       0.426421806      -3.163801826
                        -----------------------------------------
Total Dipole Moment    :      0.626755737      -0.348784908      -0.657095425
                        -----------------------------------------
Magnitude (a.u.)       :      0.972752828
Magnitude (Debye)      :      2.472541193

Rotational constants in cm-1:             0.020851             0.004093             0.004024
Rotational constants in MHz :           625.108599           122.702899           120.630771

                             ****ORCA TERMINATED NORMALLY****
TOTAL RUN TIME: 0 days 1 hours 3 minutes 47 seconds 631 msec
