                         Program Version 5.0.3 -  RELEASE  -
|  1> !TPSSh def2-TZVP opt d3 TightSCF SlowConv defgrid2
|  2>
|  3> %pal
|  4> nprocs 20
|  5> end
|  6>
|  7> %scf
|  8> MaxIter 1500
|  9> end
| 10>
| 11> %maxcore 8000
| 12>
| 13> !CPCM
| 14> %cpcm smd true
| 15> SMDsolvent "ACETONITRILE"
| 16> end
| 17>
| 18> * xyz -1 2
| 19> 6        4.790427000     -0.033865800     -0.529943200
| 20> 8        5.449345000     -1.206924000     -0.894594600
| 21> 8        4.978223000      1.323071000     -0.737377200
| 22> 6        3.506687600     -0.338741600      0.376153800
| 23> 6        2.222300000      0.400524800     -0.110681600
| 24> 6        0.900506800     -0.386389800      0.175703000
| 25> 6       -0.395261200      0.487294000      0.065549000
| 26> 6       -1.705693600     -0.364773800     -0.068373600
| 27> 6       -3.005136200      0.445344800      0.258164000
| 28> 6       -4.319880200     -0.214526000     -0.270540800
| 29> 9        3.741061800      0.055285800      1.689948800
| 30> 9        2.125696800      1.616867800      0.483236600
| 31> 9        2.314152400      0.589704000     -1.455769200
| 32> 9        0.794028800     -1.413561400     -0.700839000
| 33> 9        0.958350600     -0.884509000      1.435093400
| 34> 9       -0.498373400      1.260265600      1.173340200
| 35> 9       -0.299075000      1.289512600     -1.020910800
| 36> 9       -1.641790400     -1.418189000      0.779523800
| 37> 9       -1.792381400     -0.831391600     -1.336863600
| 38> 9       -2.918792200      1.679227200     -0.295171200
| 39> 9       -3.119771000      0.573779800      1.598579800
| 40> 9       -4.383115600     -1.504377600      0.089127600
| 41> 9       -5.365669800      0.430528600      0.260394200
| 42> 9       -4.396020400     -0.128550600     -1.602941800
| 43> *
| 44>
| 45>                          ****END OF INPUT****
 Total Charge           Charge          ....   -1
 Multiplicity           Mult            ....    2
 Number of Electrons    NEL             ....  191
Dispersion correction           -0.028885016
FINAL SINGLE POINT ENERGY     -1853.892300463231
Dispersion correction            ... done
Dispersion correction           -0.028982227
FINAL SINGLE POINT ENERGY     -1853.934520065287
Dispersion correction            ... done
Dispersion correction           -0.029018085
FINAL SINGLE POINT ENERGY     -1853.941189501455
Dispersion correction            ... done
FINAL SINGLE POINT ENERGY     -1853.942867719796
FINAL SINGLE POINT ENERGY     -1853.942695375523
FINAL SINGLE POINT ENERGY     -1853.945464399060
FINAL SINGLE POINT ENERGY     -1853.945750946238
FINAL SINGLE POINT ENERGY     -1853.946048700077
FINAL SINGLE POINT ENERGY     -1853.946445956693
FINAL SINGLE POINT ENERGY     -1853.946940037360
FINAL SINGLE POINT ENERGY     -1853.952299515082
FINAL SINGLE POINT ENERGY     -1853.952851212819
FINAL SINGLE POINT ENERGY     -1853.953275691757
FINAL SINGLE POINT ENERGY     -1853.953622672088
FINAL SINGLE POINT ENERGY     -1853.953844754718
FINAL SINGLE POINT ENERGY     -1853.953835633440
FINAL SINGLE POINT ENERGY     -1853.953859800775
Dispersion correction            ... done
Dispersion correction           -0.029252535
FINAL SINGLE POINT ENERGY     -1853.953871057844
Dispersion correction            ... done
Dispersion correction           -0.029257999
FINAL SINGLE POINT ENERGY     -1853.953863513219
Dispersion correction            ... done
                    ***********************HURRAY********************

CARTESIAN COORDINATES (ANGSTROEM)
---------------------------------
  C      4.457775   -0.662862   -0.366731
  O      4.042301   -1.074161   -1.477432
  O      5.502853   -0.945419    0.259788
  C      3.547124    0.317219    0.315815
  C      2.243560    0.886030   -0.156325
  C      1.004242   -0.041565    0.094488
  C     -0.387246    0.671717    0.030861
  C     -1.590991   -0.320224   -0.135043
  C     -2.968291    0.298669    0.274497
  C     -4.214083   -0.485912   -0.248532
  F      3.773892    0.613502    1.609502
  F      1.987818    2.056514    0.519664
  F      2.279054    1.185633   -1.479259
  F      1.014327   -1.042942   -0.811758
  F      1.132863   -0.583629    1.331974
  F     -0.568593    1.379281    1.168674
  F     -0.403676    1.528642   -1.013377
  F     -1.380293   -1.412152    0.632492
  F     -1.655461   -0.710429   -1.426278
  F     -3.058116    1.560381   -0.201021
  F     -3.045720    0.334303    1.620221
  F     -4.116733   -1.787090    0.042719
  F     -5.307587    0.004621    0.344485
  F     -4.349199   -0.344521   -1.568616

 Multiplicity           Mult            ....    2
 Number of Electrons    NEL             ....  191
 Basis Dimension        Dim             ....  744

ORBITAL ENERGIES
----------------
                 SPIN UP ORBITALS
  NO   OCC          E(Eh)            E(eV)
   0   1.0000     -24.660499      -671.0463
   1   1.0000     -24.659359      -671.0153
   2   1.0000     -24.659003      -671.0056
   3   1.0000     -24.658651      -670.9960
   4   1.0000     -24.657806      -670.9730
   5   1.0000     -24.657655      -670.9689
   6   1.0000     -24.657484      -670.9643
   7   1.0000     -24.653594      -670.8584
   8   1.0000     -24.653434      -670.8541
   9   1.0000     -24.645849      -670.6476
  10   1.0000     -24.645825      -670.6470
  11   1.0000     -24.629586      -670.2051
  12   1.0000     -24.629197      -670.1945
  13   1.0000     -24.624665      -670.0712
  14   1.0000     -18.980962      -516.4982
  15   1.0000     -18.978671      -516.4359
  16   1.0000     -10.394953      -282.8611
  17   1.0000     -10.342410      -281.4313
  18   1.0000     -10.342106      -281.4230
  19   1.0000     -10.337390      -281.2947
  20   1.0000     -10.326112      -280.9878
  21   1.0000     -10.313078      -280.6331
  22   1.0000     -10.209434      -277.8128
  23   1.0000     -10.185795      -277.1696
  24   1.0000      -1.321524       -35.9605
  25   1.0000      -1.296388       -35.2765
  26   1.0000      -1.280824       -34.8530
  27   1.0000      -1.274779       -34.6885
  28   1.0000      -1.267614       -34.4935
  29   1.0000      -1.249609       -34.0036
  30   1.0000      -1.236499       -33.6468
  31   1.0000      -1.230677       -33.4884
  32   1.0000      -1.228894       -33.4399
  33   1.0000      -1.222278       -33.2599
  34   1.0000      -1.219031       -33.1715
  35   1.0000      -1.214668       -33.0528
  36   1.0000      -1.210183       -32.9308
  37   1.0000      -1.192059       -32.4376
  38   1.0000      -0.988373       -26.8950
  39   1.0000      -0.905140       -24.6301
  40   1.0000      -0.821209       -22.3462
  41   1.0000      -0.798923       -21.7398
  42   1.0000      -0.772595       -21.0234
  43   1.0000      -0.732575       -19.9344
  44   1.0000      -0.686514       -18.6810
  45   1.0000      -0.658624       -17.9221
  46   1.0000      -0.637093       -17.3362
  47   1.0000      -0.620893       -16.8953
  48   1.0000      -0.616087       -16.7646
  49   1.0000      -0.609109       -16.5747
  50   1.0000      -0.597399       -16.2560
  51   1.0000      -0.594152       -16.1677
  52   1.0000      -0.591878       -16.1058
  53   1.0000      -0.579723       -15.7751
  54   1.0000      -0.575091       -15.6490
  55   1.0000      -0.566316       -15.4102
  56   1.0000      -0.565643       -15.3919
  57   1.0000      -0.555504       -15.1160
  58   1.0000      -0.546105       -14.8603
  59   1.0000      -0.540343       -14.7035
  60   1.0000      -0.516195       -14.0464
  61   1.0000      -0.485490       -13.2109
  62   1.0000      -0.480848       -13.0845
  63   1.0000      -0.475792       -12.9470
  64   1.0000      -0.471308       -12.8250
  65   1.0000      -0.469087       -12.7645
  66   1.0000      -0.468502       -12.7486
  67   1.0000      -0.461096       -12.5471
  68   1.0000      -0.456922       -12.4335
  69   1.0000      -0.453990       -12.3537
  70   1.0000      -0.449036       -12.2189
  71   1.0000      -0.445783       -12.1304
  72   1.0000      -0.441967       -12.0265
  73   1.0000      -0.433622       -11.7995
  74   1.0000      -0.432169       -11.7599
  75   1.0000      -0.430381       -11.7113
  76   1.0000      -0.422882       -11.5072
  77   1.0000      -0.422446       -11.4953
  78   1.0000      -0.418859       -11.3977
  79   1.0000      -0.416855       -11.3432
  80   1.0000      -0.413067       -11.2401
  81   1.0000      -0.412226       -11.2172
  82   1.0000      -0.410714       -11.1761
  83   1.0000      -0.407739       -11.0952
  84   1.0000      -0.403754       -10.9867
  85   1.0000      -0.394318       -10.7299
  86   1.0000      -0.392142       -10.6707
  87   1.0000      -0.379552       -10.3281
  88   1.0000      -0.369557       -10.0562
  89   1.0000      -0.367207        -9.9922
  90   1.0000      -0.353474        -9.6185
  91   1.0000      -0.320729        -8.7275
  92   1.0000      -0.229794        -6.2530
  93   1.0000      -0.221574        -6.0293
  94   1.0000      -0.212085        -5.7711
  95   1.0000      -0.203823        -5.5463
  96   0.0000      -0.012158        -0.3308
  97   0.0000      -0.002894        -0.0788
  98   0.0000       0.027202         0.7402
  99   0.0000       0.043710         1.1894
 100   0.0000       0.073009         1.9867

                 SPIN DOWN ORBITALS
  NO   OCC          E(Eh)            E(eV)
   0   1.0000     -24.660500      -671.0463
   1   1.0000     -24.659358      -671.0153
   2   1.0000     -24.659004      -671.0056
   3   1.0000     -24.658646      -670.9959
   4   1.0000     -24.657802      -670.9729
   5   1.0000     -24.657654      -670.9689
   6   1.0000     -24.657487      -670.9643
   7   1.0000     -24.653584      -670.8581
   8   1.0000     -24.653440      -670.8542
   9   1.0000     -24.645817      -670.6468
  10   1.0000     -24.645809      -670.6466
  11   1.0000     -24.629157      -670.1934
  12   1.0000     -24.628753      -670.1824
  13   1.0000     -24.620710      -669.9636
  14   1.0000     -18.978736      -516.4377
  15   1.0000     -18.977520      -516.4046
  16   1.0000     -10.394945      -282.8608
  17   1.0000     -10.342386      -281.4306
  18   1.0000     -10.342043      -281.4213
  19   1.0000     -10.337210      -281.2898
  20   1.0000     -10.325310      -280.9660
  21   1.0000     -10.313854      -280.6542
  22   1.0000     -10.195073      -277.4220
  23   1.0000     -10.186933      -277.2005
  24   1.0000      -1.321518       -35.9603
  25   1.0000      -1.296324       -35.2748
  26   1.0000      -1.280718       -34.8501
  27   1.0000      -1.274741       -34.6875
  28   1.0000      -1.267436       -34.4887
  29   1.0000      -1.248472       -33.9726
  30   1.0000      -1.236495       -33.6467
  31   1.0000      -1.230671       -33.4883
  32   1.0000      -1.228869       -33.4392
  33   1.0000      -1.222213       -33.2581
  34   1.0000      -1.218902       -33.1680
  35   1.0000      -1.211878       -32.9769
  36   1.0000      -1.205874       -32.8135
  37   1.0000      -1.190659       -32.3995
  38   1.0000      -0.985768       -26.8241
  39   1.0000      -0.901652       -24.5352
  40   1.0000      -0.820739       -22.3334
  41   1.0000      -0.796509       -21.6741
  42   1.0000      -0.767114       -20.8742
  43   1.0000      -0.726194       -19.7607
  44   1.0000      -0.681334       -18.5400
  45   1.0000      -0.656084       -17.8529
  46   1.0000      -0.631589       -17.1864
  47   1.0000      -0.620722       -16.8907
  48   1.0000      -0.615441       -16.7470
  49   1.0000      -0.609063       -16.5734
  50   1.0000      -0.597000       -16.2452
  51   1.0000      -0.593090       -16.1388
  52   1.0000      -0.591117       -16.0851
  53   1.0000      -0.579289       -15.7633
  54   1.0000      -0.574529       -15.6337
  55   1.0000      -0.565389       -15.3850
  56   1.0000      -0.563212       -15.3258
  57   1.0000      -0.554645       -15.0927
  58   1.0000      -0.545131       -14.8338
  59   1.0000      -0.538131       -14.6433
  60   1.0000      -0.513350       -13.9690
  61   1.0000      -0.485390       -13.2081
  62   1.0000      -0.480767       -13.0823
  63   1.0000      -0.475744       -12.9457
  64   1.0000      -0.470737       -12.8094
  65   1.0000      -0.469053       -12.7636
  66   1.0000      -0.464110       -12.6291
  67   1.0000      -0.457339       -12.4448
  68   1.0000      -0.453996       -12.3539
  69   1.0000      -0.448905       -12.2153
  70   1.0000      -0.445715       -12.1285
  71   1.0000      -0.445404       -12.1201
  72   1.0000      -0.437767       -11.9123
  73   1.0000      -0.433281       -11.7902
  74   1.0000      -0.429312       -11.6822
  75   1.0000      -0.426449       -11.6043
  76   1.0000      -0.422396       -11.4940
  77   1.0000      -0.422375       -11.4934
  78   1.0000      -0.417922       -11.3722
  79   1.0000      -0.416725       -11.3397
  80   1.0000      -0.412266       -11.2183
  81   1.0000      -0.412011       -11.2114
  82   1.0000      -0.409567       -11.1449
  83   1.0000      -0.406878       -11.0717
  84   1.0000      -0.403111       -10.9692
  85   1.0000      -0.393424       -10.7056
  86   1.0000      -0.391154       -10.6438
  87   1.0000      -0.378320       -10.2946
  88   1.0000      -0.367460        -9.9991
  89   1.0000      -0.359393        -9.7796
  90   1.0000      -0.351885        -9.5753
  91   1.0000      -0.318595        -8.6694
  92   1.0000      -0.218685        -5.9507
  93   1.0000      -0.215081        -5.8526
  94   1.0000      -0.207491        -5.6461
  95   0.0000      -0.099845        -2.7169
  96   0.0000      -0.009579        -0.2607
  97   0.0000      -0.001633        -0.0444
  98   0.0000       0.029858         0.8125
  99   0.0000       0.047848         1.3020

MULLIKEN ATOMIC CHARGES AND SPIN POPULATIONS
--------------------------------------------
   0 C :    0.203397   -0.060794
   1 O :   -0.500599    0.081249
   2 O :   -0.510205    0.044751
   3 C :    0.062130    0.818891
   4 C :    0.370586   -0.014863
   5 C :    0.250620    0.036645
   6 C :    0.299376    0.007147
   7 C :    0.272083    0.002973
   8 C :    0.295278    0.000648
   9 C :    0.407298    0.000328
  10 F :   -0.177659    0.070665
  11 F :   -0.184910    0.006662
  12 F :   -0.165483    0.005933
  13 F :   -0.154373    0.000239
  14 F :   -0.166019   -0.000627
  15 F :   -0.153652    0.000141
  16 F :   -0.152474   -0.000181
  17 F :   -0.150690    0.000027
  18 F :   -0.150125    0.000076
  19 F :   -0.147732   -0.000010
  20 F :   -0.144487    0.000022
  21 F :   -0.135798   -0.000011
  22 F :   -0.133235    0.000090
  23 F :   -0.133326    0.000000
Sum of atomic charges         :   -1.0000000

LOEWDIN ATOMIC CHARGES AND SPIN POPULATIONS
-------------------------------------------
   0 C :   -0.713486    0.033822
   1 O :   -0.067482    0.071353
   2 O :   -0.073837    0.038509
   3 C :   -0.182273    0.628840
   4 C :   -0.475507    0.073046
   5 C :   -0.454516    0.027712
   6 C :   -0.459539    0.007753
   7 C :   -0.460278    0.002564
   8 C :   -0.466698    0.000863
   9 C :   -0.668351    0.000250
  10 F :    0.192807    0.096446
  11 F :    0.173160    0.008194
  12 F :    0.200538    0.008556
  13 F :    0.222669    0.000881
  14 F :    0.210150    0.000806
  15 F :    0.220762    0.000323
  16 F :    0.222157   -0.000107
  17 F :    0.224790   -0.000049
  18 F :    0.224979    0.000115
  19 F :    0.223739   -0.000017
  20 F :    0.225580    0.000032
  21 F :    0.226498   -0.000010
  22 F :    0.225848    0.000110
  23 F :    0.228291    0.000006

  Mayer bond orders larger than 0.100000
B(  0-C ,  1-O ) :   1.8083 B(  0-C ,  2-O ) :   1.8303 B(  0-C ,  3-C ) :   0.9647
B(  3-C ,  4-C ) :   0.9863 B(  3-C , 10-F ) :   1.0521 B(  4-C ,  5-C ) :   0.9382
B(  4-C , 11-F ) :   1.0487 B(  4-C , 12-F ) :   1.1044 B(  5-C ,  6-C ) :   0.9407
B(  5-C , 13-F ) :   1.1048 B(  5-C , 14-F ) :   1.0775 B(  6-C ,  7-C ) :   0.9427
B(  6-C , 15-F ) :   1.0890 B(  6-C , 16-F ) :   1.0950 B(  7-C ,  8-C ) :   0.9413
B(  7-C , 17-F ) :   1.0947 B(  7-C , 18-F ) :   1.1013 B(  8-C ,  9-C ) :   0.9712
B(  8-C , 19-F ) :   1.1000 B(  8-C , 20-F ) :   1.1114 B(  9-C , 21-F ) :   1.1607
B(  9-C , 22-F ) :   1.1615 B(  9-C , 23-F ) :   1.1713

Dispersion correction           -0.029258043
FINAL SINGLE POINT ENERGY     -1853.953861433915

DIPOLE MOMENT
-------------
                                X             Y             Z
Electronic contribution:    -18.56340       3.15759       1.75868
Nuclear contribution   :     10.12663      -1.67133      -0.96597
                        -----------------------------------------
Total Dipole Moment    :     -8.43677       1.48626       0.79271
                        -----------------------------------------
Magnitude (a.u.)       :      8.60328
Magnitude (Debye)      :     21.86781

Rotational constants in cm-1:     0.020847     0.004164     0.004047
Rotational constants in MHz :   624.982353   124.845925   121.337201

                             ****ORCA TERMINATED NORMALLY****
TOTAL RUN TIME: 0 days 1 hours 56 minutes 25 seconds 383 msec
