                         Program Version 6.0.1  -  RELEASE   -
|  1> !TPSSh def2-TZVP freq d3 TightSCF SlowConv defgrid2
|  2>
|  3> %pal
|  4> nprocs 20
|  5> end
|  6>
|  7> %scf
|  8> MaxIter 1500
|  9> end
| 10>
| 11> %maxcore 8000
| 12>
| 13> !CPCM
| 14> %cpcm smd true
| 15> SMDsolvent "ACETONITRILE"
| 16> end
| 17>
| 18> * xyz -1 2
| 19> 6        6.915873000     27.157447000      1.747140000
| 20> 6        6.261927000     25.777691000      2.080460000
| 21> 6        7.286888000     24.619345000      2.311808000
| 22> 6        6.688821000     23.375671000      3.063913000
| 23> 6        7.510415000     22.136307000      2.907520000
| 24> 6        7.103428000     20.792764000      2.370231000
| 25> 6        7.188780000     20.641721000      0.824563000
| 26> 6        6.779803000     19.218289000      0.292909000
| 27> 9        7.842922000     27.027516000      0.792118000
| 28> 9        7.483245000     27.688657000      2.832711000
| 29> 9        5.967571000     27.993158000      1.312130000
| 30> 9        5.505061000     25.947366000      3.186715000
| 31> 9        5.455854000     25.443411000      1.052267000
| 32> 9        7.742076000     24.214061000      1.104980000
| 33> 9        8.335390000     25.092873000      3.022444000
| 34> 9        6.603259000     23.714665000      4.386708000
| 35> 9        5.432639000     23.159995000      2.609420000
| 36> 9        8.808168000     22.292069000      3.148746000
| 37> 9        7.929189000     19.861297000      2.926167000
| 38> 9        5.830729000     20.512374000      2.758790000
| 39> 9        6.397026000     21.615456000      0.285626000
| 40> 9        8.476180000     20.950124000      0.475444000
| 41> 8        7.702719000     18.383405000      0.253512000
| 42> 8        5.580532000     19.093771000     -0.015942000
| 43> 8        3.301326000     20.654196000      0.238905000
| 44> 1        2.712446000     19.995842000      0.630845000
| 45> 1        4.160409000     20.183459000      0.147764000
| 46> 1        9.382184000     18.469104000      0.838715000
| 47> 8       10.316612000     18.431095000      1.147282000
| 48> 1       10.447942000     19.275008000      1.598798000
| 49> *
| 50>
| 51>                          ****END OF INPUT****

CARTESIAN COORDINATES (ANGSTROEM)
---------------------------------
  C      6.915873   27.157447    1.747140
  C      6.261927   25.777691    2.080460
  C      7.286888   24.619345    2.311808
  C      6.688821   23.375671    3.063913
  C      7.510415   22.136307    2.907520
  C      7.103428   20.792764    2.370231
  C      7.188780   20.641721    0.824563
  C      6.779803   19.218289    0.292909
  F      7.842922   27.027516    0.792118
  F      7.483245   27.688657    2.832711
  F      5.967571   27.993158    1.312130
  F      5.505061   25.947366    3.186715
  F      5.455854   25.443411    1.052267
  F      7.742076   24.214061    1.104980
  F      8.335390   25.092873    3.022444
  F      6.603259   23.714665    4.386708
  F      5.432639   23.159995    2.609420
  F      8.808168   22.292069    3.148746
  F      7.929189   19.861297    2.926167
  F      5.830729   20.512374    2.758790
  F      6.397026   21.615456    0.285626
  F      8.476180   20.950124    0.475444
  O      7.702719   18.383405    0.253512
  O      5.580532   19.093771   -0.015942
  O      3.301326   20.654196    0.238905
  H      2.712446   19.995842    0.630845
  H      4.160409   20.183459    0.147764
  H      9.382184   18.469104    0.838715
  O     10.316612   18.431095    1.147282
  H     10.447942   19.275008    1.598798

 Total Charge           Charge          ....   -1
 Multiplicity           Mult            ....    2
 Number of Electrons    NEL             ....  211
 Basis Dimension        Dim             ....  830

ORBITAL ENERGIES
----------------
                 SPIN UP ORBITALS
  NO   OCC          E(Eh)            E(eV)
   0   1.0000     -24.665826      -671.1913
   1   1.0000     -24.659964      -671.0317
   2   1.0000     -24.658863      -671.0018
   3   1.0000     -24.658296      -670.9863
   4   1.0000     -24.657699      -670.9701
   5   1.0000     -24.657255      -670.9580
   6   1.0000     -24.656786      -670.9453
   7   1.0000     -24.656615      -670.9406
   8   1.0000     -24.652863      -670.8385
   9   1.0000     -24.644196      -670.6027
  10   1.0000     -24.637315      -670.4154
  11   1.0000     -24.636562      -670.3949
  12   1.0000     -24.622205      -670.0043
  13   1.0000     -24.621994      -669.9985
  14   1.0000     -19.014949      -517.4231
  15   1.0000     -19.013742      -517.3902
  16   1.0000     -19.010717      -517.3079
  17   1.0000     -19.010680      -517.3069
  18   1.0000     -10.394351      -282.8447
  19   1.0000     -10.341707      -281.4121
  20   1.0000     -10.339718      -281.3580
  21   1.0000     -10.338467      -281.3240
  22   1.0000     -10.321054      -280.8502
  23   1.0000     -10.288659      -279.9686
  24   1.0000     -10.257549      -279.1221
  25   1.0000     -10.210759      -277.8489
  26   1.0000      -1.320841       -35.9419
  27   1.0000      -1.292464       -35.1697
  28   1.0000      -1.276475       -34.7346
  29   1.0000      -1.271125       -34.5891
  30   1.0000      -1.264985       -34.4220
  31   1.0000      -1.254103       -34.1259
  32   1.0000      -1.239329       -33.7238
  33   1.0000      -1.235390       -33.6167
  34   1.0000      -1.230304       -33.4783
  35   1.0000      -1.226643       -33.3786
  36   1.0000      -1.219616       -33.1874
  37   1.0000      -1.211916       -32.9779
  38   1.0000      -1.203246       -32.7420
  39   1.0000      -1.183823       -32.2135
  40   1.0000      -1.020076       -27.7577
  41   1.0000      -0.951207       -25.8837
  42   1.0000      -0.948260       -25.8035
  43   1.0000      -0.934718       -25.4350
  44   1.0000      -0.828336       -22.5402
  45   1.0000      -0.806899       -21.9569
  46   1.0000      -0.770142       -20.9566
  47   1.0000      -0.732775       -19.9398
  48   1.0000      -0.692547       -18.8452
  49   1.0000      -0.663021       -18.0417
  50   1.0000      -0.636636       -17.3238
  51   1.0000      -0.617939       -16.8150
  52   1.0000      -0.615430       -16.7467
  53   1.0000      -0.608053       -16.5460
  54   1.0000      -0.594531       -16.1780
  55   1.0000      -0.591421       -16.0934
  56   1.0000      -0.589920       -16.0525
  57   1.0000      -0.581786       -15.8312
  58   1.0000      -0.574450       -15.6316
  59   1.0000      -0.571086       -15.5400
  60   1.0000      -0.563809       -15.3420
  61   1.0000      -0.553587       -15.0639
  62   1.0000      -0.551421       -15.0049
  63   1.0000      -0.542910       -14.7733
  64   1.0000      -0.526344       -14.3225
  65   1.0000      -0.499713       -13.5979
  66   1.0000      -0.490595       -13.3498
  67   1.0000      -0.483602       -13.1595
  68   1.0000      -0.478239       -13.0135
  69   1.0000      -0.474433       -12.9100
  70   1.0000      -0.472628       -12.8609
  71   1.0000      -0.468200       -12.7404
  72   1.0000      -0.466037       -12.6815
  73   1.0000      -0.457621       -12.4525
  74   1.0000      -0.451813       -12.2945
  75   1.0000      -0.450858       -12.2685
  76   1.0000      -0.447495       -12.1770
  77   1.0000      -0.443290       -12.0625
  78   1.0000      -0.441911       -12.0250
  79   1.0000      -0.433955       -11.8085
  80   1.0000      -0.432801       -11.7771
  81   1.0000      -0.430409       -11.7120
  82   1.0000      -0.428062       -11.6482
  83   1.0000      -0.422081       -11.4854
  84   1.0000      -0.419663       -11.4196
  85   1.0000      -0.417560       -11.3624
  86   1.0000      -0.415009       -11.2930
  87   1.0000      -0.412027       -11.2118
  88   1.0000      -0.410286       -11.1645
  89   1.0000      -0.409179       -11.1343
  90   1.0000      -0.405178       -11.0255
  91   1.0000      -0.399043       -10.8585
  92   1.0000      -0.396437       -10.7876
  93   1.0000      -0.388064       -10.5598
  94   1.0000      -0.383637       -10.4393
  95   1.0000      -0.380346       -10.3497
  96   1.0000      -0.352831        -9.6010
  97   1.0000      -0.337195        -9.1755
  98   1.0000      -0.335473        -9.1287
  99   1.0000      -0.329968        -8.9789
 100   1.0000      -0.262838        -7.1522
 101   1.0000      -0.260196        -7.0803
 102   1.0000      -0.257350        -7.0028
 103   1.0000      -0.250847        -6.8259
 104   1.0000      -0.238100        -6.4790
 105   1.0000      -0.233639        -6.3576
 106   0.0000      -0.017395        -0.4733
 107   0.0000       0.002579         0.0702
 108   0.0000       0.009050         0.2463
 109   0.0000       0.029191         0.7943
 110   0.0000       0.057394         1.5618

                 SPIN DOWN ORBITALS
  NO   OCC          E(Eh)            E(eV)
   0   1.0000     -24.661556      -671.0750
   1   1.0000     -24.659966      -671.0318
   2   1.0000     -24.658860      -671.0017
   3   1.0000     -24.658276      -670.9858
   4   1.0000     -24.657701      -670.9702
   5   1.0000     -24.657146      -670.9551
   6   1.0000     -24.656779      -670.9451
   7   1.0000     -24.656588      -670.9399
   8   1.0000     -24.652784      -670.8364
   9   1.0000     -24.642903      -670.5675
  10   1.0000     -24.636910      -670.4044
  11   1.0000     -24.636181      -670.3846
  12   1.0000     -24.622196      -670.0040
  13   1.0000     -24.621992      -669.9985
  14   1.0000     -19.014948      -517.4230
  15   1.0000     -19.013740      -517.3902
  16   1.0000     -19.010553      -517.3034
  17   1.0000     -19.010477      -517.3014
  18   1.0000     -10.394318      -282.8438
  19   1.0000     -10.341640      -281.4103
  20   1.0000     -10.339347      -281.3479
  21   1.0000     -10.339177      -281.3433
  22   1.0000     -10.322027      -280.8766
  23   1.0000     -10.287852      -279.9467
  24   1.0000     -10.241970      -278.6982
  25   1.0000     -10.210665      -277.8463
  26   1.0000      -1.320812       -35.9411
  27   1.0000      -1.291966       -35.1562
  28   1.0000      -1.275958       -34.7206
  29   1.0000      -1.269557       -34.5464
  30   1.0000      -1.263147       -34.3720
  31   1.0000      -1.248128       -33.9633
  32   1.0000      -1.239003       -33.7150
  33   1.0000      -1.235347       -33.6155
  34   1.0000      -1.230280       -33.4776
  35   1.0000      -1.226436       -33.3730
  36   1.0000      -1.219487       -33.1839
  37   1.0000      -1.210241       -32.9323
  38   1.0000      -1.202300       -32.7163
  39   1.0000      -1.183734       -32.2110
  40   1.0000      -1.019739       -27.7485
  41   1.0000      -0.951150       -25.8821
  42   1.0000      -0.948252       -25.8032
  43   1.0000      -0.934393       -25.4261
  44   1.0000      -0.820519       -22.3274
  45   1.0000      -0.798813       -21.7368
  46   1.0000      -0.768965       -20.9246
  47   1.0000      -0.726613       -19.7721
  48   1.0000      -0.689418       -18.7600
  49   1.0000      -0.662354       -18.0236
  50   1.0000      -0.632709       -17.2169
  51   1.0000      -0.616468       -16.7749
  52   1.0000      -0.614382       -16.7182
  53   1.0000      -0.607892       -16.5416
  54   1.0000      -0.593182       -16.1413
  55   1.0000      -0.590346       -16.0641
  56   1.0000      -0.584144       -15.8954
  57   1.0000      -0.580496       -15.7961
  58   1.0000      -0.573260       -15.5992
  59   1.0000      -0.569019       -15.4838
  60   1.0000      -0.562874       -15.3166
  61   1.0000      -0.552121       -15.0240
  62   1.0000      -0.550080       -14.9684
  63   1.0000      -0.541286       -14.7291
  64   1.0000      -0.525800       -14.3077
  65   1.0000      -0.491210       -13.3665
  66   1.0000      -0.483410       -13.1543
  67   1.0000      -0.480388       -13.0720
  68   1.0000      -0.474518       -12.9123
  69   1.0000      -0.474266       -12.9054
  70   1.0000      -0.469648       -12.7798
  71   1.0000      -0.466368       -12.6905
  72   1.0000      -0.464050       -12.6274
  73   1.0000      -0.456362       -12.4182
  74   1.0000      -0.450728       -12.2649
  75   1.0000      -0.449715       -12.2374
  76   1.0000      -0.446798       -12.1580
  77   1.0000      -0.442908       -12.0521
  78   1.0000      -0.441503       -12.0139
  79   1.0000      -0.433204       -11.7881
  80   1.0000      -0.431809       -11.7501
  81   1.0000      -0.427303       -11.6275
  82   1.0000      -0.426355       -11.6017
  83   1.0000      -0.421872       -11.4797
  84   1.0000      -0.419312       -11.4100
  85   1.0000      -0.417085       -11.3495
  86   1.0000      -0.414580       -11.2813
  87   1.0000      -0.411669       -11.2021
  88   1.0000      -0.409809       -11.1515
  89   1.0000      -0.408421       -11.1137
  90   1.0000      -0.404666       -11.0115
  91   1.0000      -0.398449       -10.8424
  92   1.0000      -0.395745       -10.7688
  93   1.0000      -0.387756       -10.5514
  94   1.0000      -0.382646       -10.4123
  95   1.0000      -0.379319       -10.3218
  96   1.0000      -0.349958        -9.5228
  97   1.0000      -0.337053        -9.1717
  98   1.0000      -0.334680        -9.1071
  99   1.0000      -0.328816        -8.9475
 100   1.0000      -0.262680        -7.1479
 101   1.0000      -0.260181        -7.0799
 102   1.0000      -0.250591        -6.8189
 103   1.0000      -0.240053        -6.5322
 104   1.0000      -0.237584        -6.4650
 105   0.0000      -0.127552        -3.4709
 106   0.0000      -0.012897        -0.3510
 107   0.0000       0.004728         0.1287
 108   0.0000       0.012742         0.3467
 109   0.0000       0.033920         0.9230

MULLIKEN ATOMIC CHARGES AND SPIN POPULATIONS
--------------------------------------------
   0 C :    0.409030    0.001322
   1 C :    0.294409    0.002943
   2 C :    0.282240    0.009396
   3 C :    0.326608   -0.002587
   4 C :    0.090290    0.856567
   5 C :    0.327551   -0.035315
   6 C :    0.277539    0.032133
   7 C :    0.295979    0.003376
   8 F :   -0.136241   -0.000052
   9 F :   -0.134246    0.000028
  10 F :   -0.133348    0.000372
  11 F :   -0.147658   -0.000100
  12 F :   -0.145024    0.000150
  13 F :   -0.155908    0.000053
  14 F :   -0.153298    0.002100
  15 F :   -0.162134    0.024078
  16 F :   -0.157049    0.000186
  17 F :   -0.137149    0.080343
  18 F :   -0.171433    0.006829
  19 F :   -0.169696    0.006261
  20 F :   -0.197750   -0.000638
  21 F :   -0.199520   -0.000116
  22 O :   -0.498958    0.005676
  23 O :   -0.501835    0.006974
  24 O :   -0.735214    0.000018
  25 H :    0.333012   -0.000003
  26 H :    0.351636   -0.000018
  27 H :    0.347236   -0.000039
  28 O :   -0.731337    0.000026
  29 H :    0.332271    0.000038
Sum of atomic charges         :   -1.0000000

LOEWDIN ATOMIC CHARGES AND SPIN POPULATIONS
-------------------------------------------
   0 C :   -0.667355    0.000979
   1 C :   -0.466547    0.003325
   2 C :   -0.453725    0.015534
   3 C :   -0.479159    0.066891
   4 C :   -0.163099    0.657461
   5 C :   -0.484040    0.056798
   6 C :   -0.440044    0.027704
   7 C :   -0.641564    0.005491
   8 F :    0.225767   -0.000022
   9 F :    0.226983    0.000069
  10 F :    0.226211    0.000439
  11 F :    0.223272   -0.000026
  12 F :    0.224947    0.000232
  13 F :    0.224075    0.001139
  14 F :    0.221414    0.002705
  15 F :    0.193326    0.026520
  16 F :    0.223665    0.002186
  17 F :    0.253918    0.104471
  18 F :    0.200414    0.007435
  19 F :    0.204031    0.008062
  20 F :    0.177001    0.000555
  21 F :    0.170073    0.000521
  22 O :   -0.022721    0.005150
  23 O :   -0.024672    0.006329
  24 O :   -0.369695    0.000019
  25 H :    0.156637   -0.000002
  26 H :    0.139995   -0.000017
  27 H :    0.136512   -0.000017
  28 O :   -0.366578    0.000035
  29 H :    0.150961    0.000034

  Mayer bond orders larger than 0.100000
B(  0-C ,  1-C ) :   0.9671 B(  0-C ,  8-F ) :   1.1587 B(  0-C ,  9-F ) :   1.1693
B(  0-C , 10-F ) :   1.1622 B(  1-C ,  2-C ) :   0.9275 B(  1-C , 11-F ) :   1.1001
B(  1-C , 12-F ) :   1.1136 B(  2-C ,  3-C ) :   0.9277 B(  2-C , 13-F ) :   1.0815
B(  2-C , 14-F ) :   1.0948 B(  3-C ,  4-C ) :   1.0723 B(  3-C , 15-F ) :   1.0766
B(  3-C , 16-F ) :   1.0842 B(  4-C ,  5-C ) :   1.0129 B(  4-C , 17-F ) :   1.1255
B(  5-C ,  6-C ) :   0.9162 B(  5-C , 18-F ) :   1.0680 B(  5-C , 19-F ) :   1.0969
B(  6-C ,  7-C ) :   0.8838 B(  6-C , 20-F ) :   1.0366 B(  6-C , 21-F ) :   1.0286
B(  7-C , 22-O ) :   1.7153 B(  7-C , 23-O ) :   1.7233 B( 22-O , 27-H ) :   0.1179
B( 23-O , 26-H ) :   0.1114 B( 24-O , 25-H ) :   0.8980 B( 24-O , 26-H ) :   0.8186
B( 27-H , 28-O ) :   0.8238 B( 28-O , 29-H ) :   0.8988

Dispersion correction           -0.034759968
FINAL SINGLE POINT ENERGY     -2006.905715170109

DIPOLE MOMENT
-------------

Method             : SCF
Type of density    : Electron Density
Multiplicity       :   2
Irrep              :   0
Energy             : -2006.8709552024190543 Eh
Relativity type    :
Basis              : AO
                                X                 Y                 Z
Electronic contribution:      1.661560702      32.924471078      10.995939116
Nuclear contribution   :     -1.603346439     -26.121577882      -7.949077688
                        -----------------------------------------
Total Dipole Moment    :      0.058214264       6.802893197       3.046861428
                        -----------------------------------------
Magnitude (a.u.)       :      7.454267859
Magnitude (Debye)      :     18.947243135

VIBRATIONAL FREQUENCIES
-----------------------

Scaling factor for frequencies =  1.000000000  (already applied!)

     0:       0.00 cm**-1
     1:       0.00 cm**-1
     2:       0.00 cm**-1
     3:       0.00 cm**-1
     4:       0.00 cm**-1
     5:       0.00 cm**-1
     6:      17.61 cm**-1
     7:      20.20 cm**-1
     8:      23.62 cm**-1
     9:      33.86 cm**-1
    10:      43.11 cm**-1
    11:      48.14 cm**-1
    12:      56.31 cm**-1
    13:      57.80 cm**-1
    14:      58.46 cm**-1
    15:      59.37 cm**-1
    16:      80.30 cm**-1
    17:      87.08 cm**-1
    18:      93.44 cm**-1
    19:     104.48 cm**-1
    20:     123.70 cm**-1
    21:     148.74 cm**-1
    22:     154.76 cm**-1
    23:     158.27 cm**-1
    24:     176.75 cm**-1
    25:     181.65 cm**-1
    26:     189.85 cm**-1
    27:     199.65 cm**-1
    28:     208.94 cm**-1
    29:     216.51 cm**-1
    30:     231.22 cm**-1
    31:     236.21 cm**-1
    32:     265.66 cm**-1
    33:     273.68 cm**-1
    34:     278.38 cm**-1
    35:     303.97 cm**-1
    36:     326.94 cm**-1
    37:     337.43 cm**-1
    38:     339.97 cm**-1
    39:     351.11 cm**-1
    40:     362.73 cm**-1
    41:     365.25 cm**-1
    42:     392.93 cm**-1
    43:     405.01 cm**-1
    44:     411.50 cm**-1
    45:     439.65 cm**-1
    46:     451.75 cm**-1
    47:     501.96 cm**-1
    48:     518.76 cm**-1
    49:     541.30 cm**-1
    50:     553.85 cm**-1
    51:     566.58 cm**-1
    52:     571.80 cm**-1
    53:     588.16 cm**-1
    54:     609.84 cm**-1
    55:     644.37 cm**-1
    56:     676.75 cm**-1
    57:     690.81 cm**-1
    58:     692.44 cm**-1
    59:     704.91 cm**-1
    60:     714.74 cm**-1
    61:     761.03 cm**-1
    62:     797.73 cm**-1
    63:     866.47 cm**-1
    64:     969.92 cm**-1
    65:    1034.37 cm**-1
    66:    1084.48 cm**-1
    67:    1097.74 cm**-1
    68:    1104.43 cm**-1
    69:    1108.86 cm**-1
    70:    1121.58 cm**-1
    71:    1135.25 cm**-1
    72:    1140.89 cm**-1
    73:    1150.39 cm**-1
    74:    1158.79 cm**-1
    75:    1173.21 cm**-1
    76:    1175.16 cm**-1
    77:    1196.61 cm**-1
    78:    1244.72 cm**-1
    79:    1306.03 cm**-1
    80:    1321.03 cm**-1
    81:    1348.18 cm**-1
    82:    1381.84 cm**-1
    83:    1661.31 cm**-1
    84:    1672.84 cm**-1
    85:    1703.15 cm**-1
    86:    3410.69 cm**-1
    87:    3437.96 cm**-1
    88:    3789.47 cm**-1
    89:    3794.85 cm**-1

IR SPECTRUM
-----------

 Mode   freq       eps      Int      T**2         TX        TY        TZ
       cm**-1   L/(mol*cm) km/mol    a.u.
----------------------------------------------------------------------------
  6:     17.61   0.000415    2.10  0.007358  ( 0.012063  0.069108 -0.049359)
  7:     20.20   0.000266    1.34  0.004106  ( 0.031491 -0.044476  0.033701)
  8:     23.62   0.000210    1.06  0.002780  (-0.038624 -0.035082  0.007590)
  9:     33.86   0.000469    2.37  0.004323  (-0.040323 -0.000544 -0.051933)
 10:     43.11   0.000403    2.03  0.002915  (-0.003362  0.023417  0.048533)
 11:     48.14   0.000199    1.00  0.001289  ( 0.031401  0.017261  0.002142)
 12:     56.31   0.000200    1.01  0.001106  (-0.021945 -0.018380 -0.016941)
 13:     57.80   0.000406    2.05  0.002194  ( 0.028275 -0.022360 -0.029908)
 14:     58.46   0.000557    2.81  0.002971  (-0.044936 -0.009828 -0.029245)
 15:     59.37   0.000226    1.14  0.001187  (-0.016328 -0.003850 -0.030100)
 16:     80.30   0.000227    1.15  0.000884  (-0.014582 -0.012046  0.022935)
 17:     87.08   0.000414    2.09  0.001483  (-0.013412  0.023176  0.027678)
 18:     93.44   0.029695  150.07  0.099170  ( 0.084452  0.100466  0.286259)
 19:    104.48   0.000648    3.27  0.001935  ( 0.012095 -0.019441  0.037561)
 20:    123.70   0.000334    1.69  0.000841  (-0.023717 -0.005998  0.015589)
 21:    148.74   0.000022    0.11  0.000045  ( 0.004853 -0.000509  0.004617)
 22:    154.76   0.005122   25.88  0.010327  ( 0.036497  0.048416 -0.081553)
 23:    158.27   0.023546  118.99  0.046426  (-0.057753 -0.080859  0.191186)
 24:    176.75   0.000937    4.74  0.001655  (-0.024102 -0.015026 -0.029130)
 25:    181.65   0.002021   10.21  0.003471  (-0.021718  0.015834  0.052430)
 26:    189.85   0.003854   19.48  0.006335  (-0.075105  0.007792 -0.025176)
 27:    199.65   0.003570   18.04  0.005580  (-0.067738  0.028379  0.013658)
 28:    208.94   0.000871    4.40  0.001301  (-0.031759  0.014917 -0.008380)
 29:    216.51   0.000953    4.82  0.001374  (-0.022380  0.006672 -0.028785)
 30:    231.22   0.000066    0.33  0.000089  (-0.007377  0.004685  0.003610)
 31:    236.21   0.000023    0.11  0.000030  ( 0.003291  0.004346  0.000099)
 32:    265.66   0.004277   21.62  0.005024  ( 0.067312 -0.021066  0.007055)
 33:    273.68   0.001592    8.05  0.001816  (-0.016587  0.039238 -0.001050)
 34:    278.38   0.000404    2.04  0.000453  (-0.010580  0.017533 -0.005837)
 35:    303.97   0.000035    0.18  0.000036  (-0.003915 -0.001449  0.004334)
 36:    326.94   0.000152    0.77  0.000145  ( 0.008217  0.006046  0.006382)
 37:    337.43   0.000331    1.67  0.000306  ( 0.007679  0.000958  0.015694)
 38:    339.97   0.000358    1.81  0.000329  (-0.017856  0.002660 -0.001702)
 39:    351.11   0.000180    0.91  0.000160  (-0.005347 -0.000592 -0.011451)
 40:    362.73   0.003263   16.49  0.002807  (-0.047407 -0.018984 -0.014116)
 41:    365.25   0.000058    0.29  0.000050  (-0.000282  0.006966  0.001052)
 42:    392.93   0.007590   38.36  0.006028  (-0.067152  0.000276  0.038969)
 43:    405.01   0.005032   25.43  0.003877  (-0.053465  0.013116  0.029095)
 44:    411.50   0.008386   42.38  0.006360  ( 0.077542  0.017159 -0.007270)
 45:    439.65   0.010042   50.75  0.007128  (-0.069931 -0.018252 -0.043637)
 46:    451.75   0.006959   35.17  0.004807  ( 0.046442  0.046032  0.023052)
 47:    501.96   0.001656    8.37  0.001030  (-0.012772 -0.015213 -0.025198)
 48:    518.76   0.005041   25.48  0.003033  ( 0.032873 -0.044062 -0.003258)
 49:    541.30   0.001775    8.97  0.001023  (-0.002920  0.006428 -0.031201)
 50:    553.85   0.005065   25.60  0.002854  (-0.016182 -0.039941  0.031572)
 51:    566.58   0.003536   17.87  0.001947  (-0.029998 -0.020973  0.024651)
 52:    571.80   0.008178   41.33  0.004463  ( 0.005405 -0.060128 -0.028614)
 53:    588.16   0.006637   33.54  0.003521  ( 0.001247 -0.055811 -0.020123)
 54:    609.84   0.005125   25.90  0.002623  ( 0.008179  0.049535  0.010105)
 55:    644.37   0.000900    4.55  0.000436  (-0.004035 -0.014657  0.014313)
 56:    676.75   0.024734  125.00  0.011405  (-0.009987  0.103883  0.022672)
 57:    690.81   0.026827  135.57  0.012119  ( 0.025912  0.067429 -0.083070)
 58:    692.44   0.004521   22.85  0.002038  ( 0.019979  0.015056 -0.037574)
 59:    704.91   0.026480  133.82  0.011723  ( 0.039749  0.040271  0.092309)
 60:    714.74   0.020524  103.72  0.008961  (-0.030176  0.056816 -0.069444)
 61:    761.03   0.006666   33.69  0.002733  (-0.018133  0.046510 -0.015537)
 62:    797.73   0.024534  123.99  0.009597  ( 0.040769  0.075440  0.047372)
 63:    866.47   0.011377   57.50  0.004098  (-0.006755  0.043286 -0.046672)
 64:    969.92   0.000155    0.78  0.000050  (-0.000744 -0.003866 -0.005869)
 65:   1034.37   0.047744  241.28  0.014404  (-0.023748  0.081564  0.084778)
 66:   1084.48   0.067502  341.13  0.019424  (-0.077501 -0.056396  0.101178)
 67:   1097.74   0.054059  273.19  0.015368  (-0.098125  0.067563 -0.034274)
 68:   1104.43   0.012624   63.80  0.003567  (-0.047299  0.030176 -0.020476)
 69:   1108.86   0.021094  106.60  0.005936  (-0.076898 -0.000727 -0.004752)
 70:   1121.58   0.065638  331.71  0.018263  ( 0.116976  0.055397 -0.038865)
 71:   1135.25   0.041811  211.30  0.011493  ( 0.028488 -0.033837 -0.097657)
 72:   1140.89   0.007487   37.84  0.002048  ( 0.026233  0.020057  0.030942)
 73:   1150.39   0.093045  470.21  0.025240  ( 0.057131  0.041321  0.142369)
 74:   1158.79   0.111329  562.61  0.029981  (-0.171664  0.015143  0.016821)
 75:   1173.21   0.044392  224.34  0.011808  ( 0.007386 -0.029985 -0.104183)
 76:   1175.16   0.055855  282.27  0.014832  ( 0.079554  0.006561  0.091981)
 77:   1196.61   0.008712   44.03  0.002272  (-0.027909  0.035746 -0.014676)
 78:   1244.72   0.003958   20.00  0.000992  ( 0.004672  0.024361  0.019415)
 79:   1306.03   0.026739  135.13  0.006389  (-0.037319  0.063699 -0.030639)
 80:   1321.03   0.012452   62.93  0.002941  (-0.030146  0.045059  0.001563)
 81:   1348.18   0.066271  334.90  0.015340  ( 0.041707  0.099893  0.060179)
 82:   1381.84   0.013250   66.96  0.002992  (-0.007750  0.051373  0.017120)
 83:   1661.31   0.027367  138.30  0.005141  ( 0.030786 -0.063389  0.013216)
 84:   1672.84   0.053853  272.15  0.010046  (-0.081898  0.057657  0.003793)
 85:   1703.15   0.191075  965.61  0.035010  (-0.179389  0.047095 -0.024736)
 86:   3410.69   0.327310  1654.09  0.029947  (-0.166985  0.032209 -0.032029)
 87:   3437.96   0.077141  389.84  0.007002  ( 0.074996 -0.035017 -0.012312)
 88:   3789.47   0.015846   80.08  0.001305  ( 0.033917  0.009151 -0.008416)
 89:   3794.85   0.011430   57.76  0.000940  ( 0.021226  0.015904  0.015378)

--------------------------
THERMOCHEMISTRY AT 298.15K
--------------------------

Temperature         ...   298.15 K
Pressure            ...     1.00 atm
Total Mass          ...   430.09 AMU
Quasi RRHO          ...     True
Cut-Off Frequency   ...     1.00 cm^-1

Throughout the following assumptions are being made:
  (1) The electronic state is orbitally nondegenerate
      but the spin degeneracy is treated
  (2) There are no thermally accessible electronically excited states
  (3) Hindered rotations indicated by low frequency modes are not
      treated as such but are treated as vibrations and this may
      cause some error
  (4) All equations used are the standard statistical mechanics
      equations for an ideal gas
  (5) All vibrations are strictly harmonic

freq.      17.61  E(vib)   ...       0.57
freq.      20.20  E(vib)   ...       0.56
freq.      23.62  E(vib)   ...       0.56
freq.      33.86  E(vib)   ...       0.55
freq.      43.11  E(vib)   ...       0.53
freq.      48.14  E(vib)   ...       0.53
freq.      56.31  E(vib)   ...       0.52
freq.      57.80  E(vib)   ...       0.51
freq.      58.46  E(vib)   ...       0.51
freq.      59.37  E(vib)   ...       0.51
freq.      80.30  E(vib)   ...       0.49
freq.      87.08  E(vib)   ...       0.48
freq.      93.44  E(vib)   ...       0.47
freq.     104.48  E(vib)   ...       0.46
freq.     123.70  E(vib)   ...       0.43
freq.     148.74  E(vib)   ...       0.41
freq.     154.76  E(vib)   ...       0.40
freq.     158.27  E(vib)   ...       0.39
freq.     176.75  E(vib)   ...       0.38
freq.     181.65  E(vib)   ...       0.37
freq.     189.85  E(vib)   ...       0.36
freq.     199.65  E(vib)   ...       0.35
freq.     208.94  E(vib)   ...       0.34
freq.     216.51  E(vib)   ...       0.34
freq.     231.22  E(vib)   ...       0.32
freq.     236.21  E(vib)   ...       0.32
freq.     265.66  E(vib)   ...       0.29
freq.     273.68  E(vib)   ...       0.28
freq.     278.38  E(vib)   ...       0.28
freq.     303.97  E(vib)   ...       0.26
freq.     326.94  E(vib)   ...       0.24
freq.     337.43  E(vib)   ...       0.24
freq.     339.97  E(vib)   ...       0.23
freq.     351.11  E(vib)   ...       0.23
freq.     362.73  E(vib)   ...       0.22
freq.     365.25  E(vib)   ...       0.22
freq.     392.93  E(vib)   ...       0.20
freq.     405.01  E(vib)   ...       0.19
freq.     411.50  E(vib)   ...       0.19
freq.     439.65  E(vib)   ...       0.17
freq.     451.75  E(vib)   ...       0.16
freq.     501.96  E(vib)   ...       0.14
freq.     518.76  E(vib)   ...       0.13
freq.     541.30  E(vib)   ...       0.12
freq.     553.85  E(vib)   ...       0.12
freq.     566.58  E(vib)   ...       0.11
freq.     571.80  E(vib)   ...       0.11
freq.     588.16  E(vib)   ...       0.10
freq.     609.84  E(vib)   ...       0.10
freq.     644.37  E(vib)   ...       0.09
freq.     676.75  E(vib)   ...       0.08
freq.     690.81  E(vib)   ...       0.07
freq.     692.44  E(vib)   ...       0.07
freq.     704.91  E(vib)   ...       0.07
freq.     714.74  E(vib)   ...       0.07
freq.     761.03  E(vib)   ...       0.06
freq.     797.73  E(vib)   ...       0.05
freq.     866.47  E(vib)   ...       0.04
freq.     969.92  E(vib)   ...       0.03
freq.    1034.37  E(vib)   ...       0.02
freq.    1084.48  E(vib)   ...       0.02
freq.    1097.74  E(vib)   ...       0.02
freq.    1104.43  E(vib)   ...       0.02
freq.    1108.86  E(vib)   ...       0.02
freq.    1121.58  E(vib)   ...       0.01
freq.    1135.25  E(vib)   ...       0.01
freq.    1140.89  E(vib)   ...       0.01
freq.    1150.39  E(vib)   ...       0.01
freq.    1158.79  E(vib)   ...       0.01
freq.    1173.21  E(vib)   ...       0.01
freq.    1175.16  E(vib)   ...       0.01
freq.    1196.61  E(vib)   ...       0.01
freq.    1244.72  E(vib)   ...       0.01
freq.    1306.03  E(vib)   ...       0.01
freq.    1321.03  E(vib)   ...       0.01
freq.    1348.18  E(vib)   ...       0.01
freq.    1381.84  E(vib)   ...       0.01
freq.    1661.31  E(vib)   ...       0.00
freq.    1672.84  E(vib)   ...       0.00
freq.    1703.15  E(vib)   ...       0.00
freq.    3410.69  E(vib)   ...       0.00
freq.    3437.96  E(vib)   ...       0.00
freq.    3789.47  E(vib)   ...       0.00
freq.    3794.85  E(vib)   ...       0.00

------------
INNER ENERGY
------------

The inner energy is: U= E(el) + E(ZPE) + E(vib) + E(rot) + E(trans)
    E(el)   - is the total energy from the electronic structure calculation
              = E(kin-el) + E(nuc-el) + E(el-el) + E(nuc-nuc)
    E(ZPE)  - the the zero temperature vibrational energy from the frequency calculation
    E(vib)  - the the finite temperature correction to E(ZPE) due to population
              of excited vibrational states
    E(rot)  - is the rotational thermal energy
    E(trans)- is the translational thermal energy

Summary of contributions to the inner energy U:
Electronic energy                ...  -2006.90571517 Eh
Zero point energy                ...      0.13906222 Eh      87.26 kcal/mol
Thermal vibrational correction   ...      0.02680998 Eh      16.82 kcal/mol
Thermal rotational correction    ...      0.00141627 Eh       0.89 kcal/mol
Thermal translational correction ...      0.00141627 Eh       0.89 kcal/mol
-----------------------------------------------------------------------
Total thermal energy                  -2006.73701043 Eh

Summary of corrections to the electronic energy:
(perhaps to be used in another calculation)
Total thermal correction                  0.02964253 Eh      18.60 kcal/mol
Non-thermal (ZPE) correction              0.13906222 Eh      87.26 kcal/mol
-----------------------------------------------------------------------
Total correction                          0.16870475 Eh     105.86 kcal/mol

--------
ENTHALPY
--------

The enthalpy is H = U + kB*T
                kB is Boltzmann's constant
Total thermal energy              ...  -2006.73701043 Eh
Thermal Enthalpy correction       ...      0.00094421 Eh       0.59 kcal/mol
-----------------------------------------------------------------------
Total Enthalpy                    ...  -2006.73606622 Eh

Note: Only C1 symmetry has been detected, increase convergence thresholds
      if your molecule has a higher symmetry. Symmetry factor of 1.0 is
      used for the rotational entropy correction.

Note: Rotational entropy computed according to Herzberg
Infrared and Raman Spectra, Chapter V,1, Van Nostrand Reinhold, 1945
Point Group:  C1, Symmetry Number:   1
Rotational constants in cm-1:     0.011913     0.003878     0.003580

Vibrational entropy computed according to the QRRHO of S. Grimme
Chem.Eur.J. 2012 18 9955 using a reference frequency of 100.0 cm-1

                             ****ORCA TERMINATED NORMALLY****
TOTAL RUN TIME: 0 days 0 hours 30 minutes 46 seconds 99 msec
