                         Program Version 6.0.1  -  RELEASE   -
|  1> !TPSSh def2-TZVP opt d3 TightSCF SlowConv defgrid2
|  2>
|  3> %pal
|  4> nprocs 20
|  5> end
|  6>
|  7> %scf
|  8> MaxIter 1500
|  9> end
| 10>
| 11> %maxcore 8000
| 12>
| 13> !CPCM
| 14> %cpcm smd true
| 15> SMDsolvent "ACETONITRILE"
| 16> end
| 17>
| 18> * xyz 0 2
| 19> 6        4.790427000     -0.033865800     -0.529943200
| 20> 8        5.449345000     -1.206924000     -0.894594600
| 21> 8        4.978223000      1.323071000     -0.737377200
| 22> 6        3.506687600     -0.338741600      0.376153800
| 23> 6        2.222300000      0.400524800     -0.110681600
| 24> 6        0.900506800     -0.386389800      0.175703000
| 25> 6       -0.395261200      0.487294000      0.065549000
| 26> 6       -1.705693600     -0.364773800     -0.068373600
| 27> 6       -3.005136200      0.445344800      0.258164000
| 28> 6       -4.319880200     -0.214526000     -0.270540800
| 29> 9        3.211587400     -1.692050400      0.412735200
| 30> 9        3.741061800      0.055285800      1.689948800
| 31> 9        2.125696800      1.616867800      0.483236600
| 32> 9        2.314152400      0.589704000     -1.455769200
| 33> 9        0.794028800     -1.413561400     -0.700839000
| 34> 9        0.958350600     -0.884509000      1.435093400
| 35> 9       -0.299075000      1.289512600     -1.020910800
| 36> 9       -1.641790400     -1.418189000      0.779523800
| 37> 9       -1.792381400     -0.831391600     -1.336863600
| 38> 9       -2.918792200      1.679227200     -0.295171200
| 39> 9       -3.119771000      0.573779800      1.598579800
| 40> 9       -4.383115600     -1.504377600      0.089127600
| 41> 9       -5.365669800      0.430528600      0.260394200
| 42> 9       -4.396020400     -0.128550600     -1.602941800
| 43> 1        5.903122371     -2.014774547     -1.145719253
| 44> *
| 45>
| 46>                          ****END OF INPUT****
 Total Charge           Charge          ....    0
 Multiplicity           Mult            ....    2
 Number of Electrons    NEL             ....  191
Dispersion correction           -0.029156994
FINAL SINGLE POINT ENERGY     -1854.294319009344
Dispersion correction             ... done (  0.0 sec)
Dispersion correction           -0.029299783
FINAL SINGLE POINT ENERGY     -1854.344878175637
Dispersion correction             ... done (  0.0 sec)
Dispersion correction           -0.029405504
FINAL SINGLE POINT ENERGY     -1854.355333677336
Dispersion correction             ... done (  0.0 sec)
FINAL SINGLE POINT ENERGY     -1854.361733240595
FINAL SINGLE POINT ENERGY     -1854.363398369067
FINAL SINGLE POINT ENERGY     -1854.364659024178
FINAL SINGLE POINT ENERGY     -1854.367219115547
FINAL SINGLE POINT ENERGY     -1854.372503320348
FINAL SINGLE POINT ENERGY     -1854.377767261247
FINAL SINGLE POINT ENERGY     -1854.378478208051
FINAL SINGLE POINT ENERGY     -1854.409202645306
FINAL SINGLE POINT ENERGY     -1854.409270507781
FINAL SINGLE POINT ENERGY     -1854.409296934517
FINAL SINGLE POINT ENERGY     -1854.409357033080
FINAL SINGLE POINT ENERGY     -1854.409397339805
FINAL SINGLE POINT ENERGY     -1854.409430796120
FINAL SINGLE POINT ENERGY     -1854.409437838902
Dispersion correction             ... done (  0.0 sec)
Dispersion correction           -0.029738079
FINAL SINGLE POINT ENERGY     -1854.409443906717
Dispersion correction             ... done (  0.0 sec)
Dispersion correction           -0.029739034
FINAL SINGLE POINT ENERGY     -1854.409445741453
Dispersion correction             ... done (  0.0 sec)
                    ***********************HURRAY********************

CARTESIAN COORDINATES (ANGSTROEM)
---------------------------------
  C      4.484661    0.335454    0.248514
  O      5.273086   -0.373078   -0.548897
  O      4.683909    1.438793    0.678604
  C      3.184700   -0.445570    0.583133
  C      2.035827   -0.081227   -0.409878
  C      0.782130   -1.016288   -0.349807
  C     -0.410561   -0.426256   -1.035991
  C     -1.858359   -0.660195   -0.701033
  C     -2.488258    0.503990    0.127879
  C     -3.996829    0.369811    0.494193
  F      3.397314   -1.782092    0.544653
  F      2.801213   -0.110373    1.834237
  F      1.643232    1.185791   -0.141623
  F      2.536838   -0.115365   -1.667829
  F      1.127446   -2.210280   -0.921722
  F      0.481906   -1.262162    0.948757
  F     -0.182907    0.241325   -2.156596
  F     -1.989268   -1.809402    0.004263
  F     -2.558722   -0.775470   -1.858864
  F     -2.338124    1.645692   -0.581931
  F     -1.797657    0.618599    1.283908
  F     -4.215444   -0.724362    1.229218
  F     -4.360818    1.442215    1.208439
  F     -4.755272    0.314420   -0.603228
  H      6.072861    0.154547   -0.753914

 Multiplicity           Mult            ....    2
 Number of Electrons    NEL             ....  191
 Basis Dimension        Dim             ....  750

ORBITAL ENERGIES
----------------
                 SPIN UP ORBITALS
  NO   OCC          E(Eh)            E(eV)
   0   1.0000     -24.675759      -671.4615
   1   1.0000     -24.660248      -671.0395
   2   1.0000     -24.660158      -671.0370
   3   1.0000     -24.659103      -671.0083
   4   1.0000     -24.659085      -671.0078
   5   1.0000     -24.658857      -671.0016
   6   1.0000     -24.657883      -670.9751
   7   1.0000     -24.657698      -670.9701
   8   1.0000     -24.656420      -670.9353
   9   1.0000     -24.656013      -670.9242
  10   1.0000     -24.654404      -670.8804
  11   1.0000     -24.649856      -670.7567
  12   1.0000     -24.648434      -670.7180
  13   1.0000     -24.647971      -670.7054
  14   1.0000     -19.133035      -520.6364
  15   1.0000     -19.079537      -519.1806
  16   1.0000     -10.395451      -282.8746
  17   1.0000     -10.345248      -281.5085
  18   1.0000     -10.343005      -281.4475
  19   1.0000     -10.340193      -281.3710
  20   1.0000     -10.338664      -281.3293
  21   1.0000     -10.331873      -281.1445
  22   1.0000     -10.280476      -279.7460
  23   1.0000     -10.269523      -279.4479
  24   1.0000      -1.321329       -35.9552
  25   1.0000      -1.294276       -35.2190
  26   1.0000      -1.288427       -35.0599
  27   1.0000      -1.276262       -34.7288
  28   1.0000      -1.271396       -34.5964
  29   1.0000      -1.270019       -34.5590
  30   1.0000      -1.265881       -34.4464
  31   1.0000      -1.235968       -33.6324
  32   1.0000      -1.230336       -33.4792
  33   1.0000      -1.228608       -33.4321
  34   1.0000      -1.225594       -33.3501
  35   1.0000      -1.218882       -33.1675
  36   1.0000      -1.214792       -33.0562
  37   1.0000      -1.213907       -33.0321
  38   1.0000      -1.118928       -30.4476
  39   1.0000      -1.035021       -28.1644
  40   1.0000      -0.838271       -22.8105
  41   1.0000      -0.810815       -22.0634
  42   1.0000      -0.789929       -21.4950
  43   1.0000      -0.754776       -20.5385
  44   1.0000      -0.709955       -19.3189
  45   1.0000      -0.677429       -18.4338
  46   1.0000      -0.649148       -17.6642
  47   1.0000      -0.641099       -17.4452
  48   1.0000      -0.620013       -16.8714
  49   1.0000      -0.615912       -16.7598
  50   1.0000      -0.610647       -16.6165
  51   1.0000      -0.605461       -16.4754
  52   1.0000      -0.601815       -16.3762
  53   1.0000      -0.593772       -16.1574
  54   1.0000      -0.586585       -15.9618
  55   1.0000      -0.582725       -15.8568
  56   1.0000      -0.578328       -15.7371
  57   1.0000      -0.571126       -15.5411
  58   1.0000      -0.562851       -15.3159
  59   1.0000      -0.560689       -15.2571
  60   1.0000      -0.552120       -15.0239
  61   1.0000      -0.544465       -14.8157
  62   1.0000      -0.510162       -13.8822
  63   1.0000      -0.497391       -13.5347
  64   1.0000      -0.481983       -13.1154
  65   1.0000      -0.477295       -12.9879
  66   1.0000      -0.475846       -12.9484
  67   1.0000      -0.474571       -12.9137
  68   1.0000      -0.473607       -12.8875
  69   1.0000      -0.465364       -12.6632
  70   1.0000      -0.462214       -12.5775
  71   1.0000      -0.460129       -12.5207
  72   1.0000      -0.455746       -12.4015
  73   1.0000      -0.453021       -12.3273
  74   1.0000      -0.449820       -12.2402
  75   1.0000      -0.448770       -12.2117
  76   1.0000      -0.445318       -12.1177
  77   1.0000      -0.438725       -11.9383
  78   1.0000      -0.434761       -11.8304
  79   1.0000      -0.432644       -11.7728
  80   1.0000      -0.430144       -11.7048
  81   1.0000      -0.428719       -11.6660
  82   1.0000      -0.423180       -11.5153
  83   1.0000      -0.419145       -11.4055
  84   1.0000      -0.417385       -11.3576
  85   1.0000      -0.415095       -11.2953
  86   1.0000      -0.412889       -11.2353
  87   1.0000      -0.411844       -11.2068
  88   1.0000      -0.410601       -11.1730
  89   1.0000      -0.403958       -10.9922
  90   1.0000      -0.389484       -10.5984
  91   1.0000      -0.358670        -9.7599
  92   1.0000      -0.341173        -9.2838
  93   1.0000      -0.338401        -9.2083
  94   1.0000      -0.296036        -8.0556
  95   1.0000      -0.261641        -7.1196
  96   0.0000      -0.065014        -1.7691
  97   0.0000      -0.012930        -0.3518
  98   0.0000       0.010106         0.2750
  99   0.0000       0.024494         0.6665
 100   0.0000       0.034546         0.9400

                 SPIN DOWN ORBITALS
  NO   OCC          E(Eh)            E(eV)
   0   1.0000     -24.671302      -671.3402
   1   1.0000     -24.660250      -671.0395
   2   1.0000     -24.660159      -671.0370
   3   1.0000     -24.659088      -671.0079
   4   1.0000     -24.659063      -671.0072
   5   1.0000     -24.658750      -670.9987
   6   1.0000     -24.657823      -670.9735
   7   1.0000     -24.657613      -670.9678
   8   1.0000     -24.656008      -670.9241
   9   1.0000     -24.655751      -670.9171
  10   1.0000     -24.653819      -670.8645
  11   1.0000     -24.649856      -670.7567
  12   1.0000     -24.648431      -670.7179
  13   1.0000     -24.646357      -670.6615
  14   1.0000     -19.133034      -520.6363
  15   1.0000     -19.079527      -519.1803
  16   1.0000     -10.395322      -282.8711
  17   1.0000     -10.346193      -281.5342
  18   1.0000     -10.343801      -281.4691
  19   1.0000     -10.339552      -281.3535
  20   1.0000     -10.338455      -281.3237
  21   1.0000     -10.331862      -281.1443
  22   1.0000     -10.280470      -279.7458
  23   1.0000     -10.253746      -279.0186
  24   1.0000      -1.321207       -35.9519
  25   1.0000      -1.293146       -35.1883
  26   1.0000      -1.287637       -35.0384
  27   1.0000      -1.274641       -34.6847
  28   1.0000      -1.270653       -34.5762
  29   1.0000      -1.269369       -34.5413
  30   1.0000      -1.259309       -34.2675
  31   1.0000      -1.235838       -33.6289
  32   1.0000      -1.230188       -33.4751
  33   1.0000      -1.228194       -33.4208
  34   1.0000      -1.225237       -33.3404
  35   1.0000      -1.218029       -33.1442
  36   1.0000      -1.214067       -33.0365
  37   1.0000      -1.212528       -32.9946
  38   1.0000      -1.118920       -30.4474
  39   1.0000      -1.035008       -28.1640
  40   1.0000      -0.826192       -22.4818
  41   1.0000      -0.809979       -22.0407
  42   1.0000      -0.783457       -21.3190
  43   1.0000      -0.753117       -20.4934
  44   1.0000      -0.705646       -19.2016
  45   1.0000      -0.675975       -18.3942
  46   1.0000      -0.644412       -17.5353
  47   1.0000      -0.640740       -17.4354
  48   1.0000      -0.617736       -16.8094
  49   1.0000      -0.613819       -16.7029
  50   1.0000      -0.609793       -16.5933
  51   1.0000      -0.604474       -16.4486
  52   1.0000      -0.600839       -16.3497
  53   1.0000      -0.591661       -16.0999
  54   1.0000      -0.585367       -15.9286
  55   1.0000      -0.581120       -15.8131
  56   1.0000      -0.576430       -15.6855
  57   1.0000      -0.569874       -15.5071
  58   1.0000      -0.561684       -15.2842
  59   1.0000      -0.558139       -15.1877
  60   1.0000      -0.550558       -14.9814
  61   1.0000      -0.544042       -14.8041
  62   1.0000      -0.497400       -13.5349
  63   1.0000      -0.486297       -13.2328
  64   1.0000      -0.480246       -13.0681
  65   1.0000      -0.475765       -12.9462
  66   1.0000      -0.474391       -12.9088
  67   1.0000      -0.473326       -12.8799
  68   1.0000      -0.471784       -12.8379
  69   1.0000      -0.465029       -12.6541
  70   1.0000      -0.461491       -12.5578
  71   1.0000      -0.458599       -12.4791
  72   1.0000      -0.455192       -12.3864
  73   1.0000      -0.452361       -12.3094
  74   1.0000      -0.448834       -12.2134
  75   1.0000      -0.447192       -12.1687
  76   1.0000      -0.443043       -12.0558
  77   1.0000      -0.437054       -11.8929
  78   1.0000      -0.434006       -11.8099
  79   1.0000      -0.431975       -11.7546
  80   1.0000      -0.429877       -11.6975
  81   1.0000      -0.427288       -11.6271
  82   1.0000      -0.422870       -11.5069
  83   1.0000      -0.417757       -11.3677
  84   1.0000      -0.416768       -11.3408
  85   1.0000      -0.414595       -11.2817
  86   1.0000      -0.412299       -11.2192
  87   1.0000      -0.411545       -11.1987
  88   1.0000      -0.409930       -11.1548
  89   1.0000      -0.402834       -10.9617
  90   1.0000      -0.388418       -10.5694
  91   1.0000      -0.356236        -9.6937
  92   1.0000      -0.340475        -9.2648
  93   1.0000      -0.337350        -9.1797
  94   1.0000      -0.295793        -8.0489
  95   0.0000      -0.137242        -3.7345
  96   0.0000      -0.064018        -1.7420
  97   0.0000      -0.007861        -0.2139
  98   0.0000       0.012632         0.3437
  99   0.0000       0.029618         0.8059

MULLIKEN ATOMIC CHARGES AND SPIN POPULATIONS
--------------------------------------------
   0 C :    0.224780    0.000345
   1 O :   -0.338791   -0.000045
   2 O :   -0.289167    0.000336
   3 C :    0.381463    0.001000
   4 C :    0.267678   -0.003512
   5 C :    0.320106    0.000863
   6 C :    0.134158    0.858738
   7 C :    0.308464   -0.030348
   8 C :    0.291781    0.026648
   9 C :    0.411642    0.004982
  10 F :   -0.159190   -0.000057
  11 F :   -0.156004    0.000081
  12 F :   -0.157313    0.000680
  13 F :   -0.157163    0.001747
  14 F :   -0.161282    0.030762
  15 F :   -0.157080    0.003413
  16 F :   -0.125691    0.085223
  17 F :   -0.153662    0.006534
  18 F :   -0.153850    0.010889
  19 F :   -0.153407   -0.000090
  20 F :   -0.151894   -0.000303
  21 F :   -0.136758   -0.000010
  22 F :   -0.135034    0.002130
  23 F :   -0.135943   -0.000040
  24 H :    0.382158    0.000033
Sum of atomic charges         :   -0.0000000

LOEWDIN ATOMIC CHARGES AND SPIN POPULATIONS
-------------------------------------------
   0 C :   -0.490893    0.000321
   1 O :    0.156262    0.000017
   2 O :    0.135246    0.000291
   3 C :   -0.452454    0.000908
   4 C :   -0.448133    0.006198
   5 C :   -0.474441    0.061763
   6 C :   -0.158619    0.664915
   7 C :   -0.480647    0.061134
   8 C :   -0.461212    0.022817
   9 C :   -0.665886    0.004392
  10 F :    0.210508    0.000035
  11 F :    0.214836    0.000118
  12 F :    0.223580    0.001662
  13 F :    0.220190    0.002110
  14 F :    0.194569    0.033999
  15 F :    0.220343    0.006350
  16 F :    0.267256    0.109123
  17 F :    0.220281    0.008162
  18 F :    0.214268    0.011590
  19 F :    0.221684    0.000617
  20 F :    0.223418    0.000969
  21 F :    0.226045    0.000047
  22 F :    0.222617    0.002420
  23 F :    0.227289    0.000016
  24 H :    0.233893    0.000024

  Mayer bond orders larger than 0.100000
B(  0-C ,  1-O ) :   1.3127 B(  0-C ,  2-O ) :   2.0716 B(  0-C ,  3-C ) :   0.9024
B(  1-O , 24-H ) :   0.8195 B(  3-C ,  4-C ) :   0.9510 B(  3-C , 10-F ) :   1.1020
B(  3-C , 11-F ) :   1.1208 B(  4-C ,  5-C ) :   0.9380 B(  4-C , 12-F ) :   1.0929
B(  4-C , 13-F ) :   1.0788 B(  5-C ,  6-C ) :   1.0664 B(  5-C , 14-F ) :   1.0790
B(  5-C , 15-F ) :   1.0754 B(  6-C ,  7-C ) :   1.0282 B(  6-C , 16-F ) :   1.1351
B(  7-C ,  8-C ) :   0.9325 B(  7-C , 17-F ) :   1.1025 B(  7-C , 18-F ) :   1.0952
B(  8-C ,  9-C ) :   0.9677 B(  8-C , 19-F ) :   1.0879 B(  8-C , 20-F ) :   1.0959
B(  9-C , 21-F ) :   1.1657 B(  9-C , 22-F ) :   1.1576 B(  9-C , 23-F ) :   1.1675

Dispersion correction           -0.029740371
FINAL SINGLE POINT ENERGY     -1854.409446524882

DIPOLE MOMENT
-------------

Method             : SCF
Type of density    : Electron Density
Multiplicity       :   2
Irrep              :   0
Energy             : -1854.3797061542143183 Eh
Relativity type    :
Basis              : AO
                                X                 Y                 Z
Electronic contribution:    -14.094935227      -1.490440067      -0.031593394
Nuclear contribution   :     15.069885102       1.332389035      -0.739262066
                        -----------------------------------------
Total Dipole Moment    :      0.974949876      -0.158051032      -0.770855460
                        -----------------------------------------
Magnitude (a.u.)       :      1.252886878
Magnitude (Debye)      :      3.184585361

Rotational constants in cm-1:             0.018916             0.004181             0.004077
Rotational constants in MHz :           567.099193           125.349142           122.238435

                             ****ORCA TERMINATED NORMALLY****
TOTAL RUN TIME: 0 days 1 hours 3 minutes 44 seconds 790 msec
