                         Program Version 6.0.1  -  RELEASE   -
|  1> !B3LYP def2-TZVP freq d3 TightSCF SlowConv defgrid2
|  2>
|  3> %pal
|  4> nprocs 20
|  5> end
|  6>
|  7> %scf
|  8> MaxIter 1500
|  9> end
| 10>
| 11> %maxcore 8000
| 12>
| 13> !CPCM
| 14> %cpcm smd true
| 15> SMDsolvent "ACETONITRILE"
| 16> end
| 17>
| 18> * xyz -2 2
| 19> 6        6.859799000     28.308382000      2.613032000
| 20> 6        6.310756000     26.874593000      2.807087000
| 21> 6        6.911482000     25.618673000      2.095870000
| 22> 6        6.433969000     24.116596000      2.196213000
| 23> 6        7.039291000     22.865127000      1.472613000
| 24> 6        6.529752000     21.407102000      1.721235000
| 25> 6        7.017643000     20.251552000      0.796699000
| 26> 6        6.681268000     18.817959000      1.347801000
| 27> 9        6.772201000     28.682229000      1.326845000
| 28> 9        8.146326000     28.381730000      2.988996000
| 29> 9        6.187107000     29.247227000      3.338770000
| 30> 9        6.389030000     26.642705000      4.161124000
| 31> 9        4.986278000     26.947333000      2.444177000
| 32> 9        6.833388000     25.921108000      0.737862000
| 33> 9        8.244323000     25.600662000      2.486975000
| 34> 9        6.516703000     23.815995000      3.553335000
| 35> 9        5.100047000     24.149386000      1.817844000
| 36> 9        6.902190000     23.099921000      0.123750000
| 37> 9        8.379976000     22.860404000      1.779336000
| 38> 9        6.872433000     21.073759000      3.002140000
| 39> 9        5.166437000     21.428223000      1.650777000
| 40> 9        6.451781000     20.434429000     -0.438066000
| 41> 9        8.367792000     20.398655000      0.622225000
| 42> 8        7.611520000     18.226617000      1.908196000
| 43> 8        5.495253000     18.457890000      1.171438000
| 44> 8        3.244888000     19.245862000     -0.190165000
| 45> 1        3.119582000     18.478231000     -0.760346000
| 46> 1        4.087538000     19.064965000      0.284853000
| 47> *
| 48>
| 49>                          ****END OF INPUT****

CARTESIAN COORDINATES (ANGSTROEM)
---------------------------------
  C      6.859799   28.308382    2.613032
  C      6.310756   26.874593    2.807087
  C      6.911482   25.618673    2.095870
  C      6.433969   24.116596    2.196213
  C      7.039291   22.865127    1.472613
  C      6.529752   21.407102    1.721235
  C      7.017643   20.251552    0.796699
  C      6.681268   18.817959    1.347801
  F      6.772201   28.682229    1.326845
  F      8.146326   28.381730    2.988996
  F      6.187107   29.247227    3.338770
  F      6.389030   26.642705    4.161124
  F      4.986278   26.947333    2.444177
  F      6.833388   25.921108    0.737862
  F      8.244323   25.600662    2.486975
  F      6.516703   23.815995    3.553335
  F      5.100047   24.149386    1.817844
  F      6.902190   23.099921    0.123750
  F      8.379976   22.860404    1.779336
  F      6.872433   21.073759    3.002140
  F      5.166437   21.428223    1.650777
  F      6.451781   20.434429   -0.438066
  F      8.367792   20.398655    0.622225
  O      7.611520   18.226617    1.908196
  O      5.495253   18.457890    1.171438
  O      3.244888   19.245862   -0.190165
  H      3.119582   18.478231   -0.760346
  H      4.087538   19.064965    0.284853

 Total Charge           Charge          ....   -2
 Multiplicity           Mult            ....    2
 Number of Electrons    NEL             ....  211
 Basis Dimension        Dim             ....  818

ORBITAL ENERGIES
----------------
                 SPIN UP ORBITALS
  NO   OCC          E(Eh)            E(eV)
   0   1.0000     -24.719916      -672.6631
   1   1.0000     -24.719820      -672.6605
   2   1.0000     -24.712030      -672.4485
   3   1.0000     -24.700554      -672.1362
   4   1.0000     -24.700354      -672.1308
   5   1.0000     -24.699206      -672.0996
   6   1.0000     -24.696802      -672.0341
   7   1.0000     -24.693355      -671.9404
   8   1.0000     -24.691938      -671.9018
   9   1.0000     -24.686064      -671.7420
  10   1.0000     -24.685567      -671.7284
  11   1.0000     -24.685111      -671.7160
  12   1.0000     -24.684343      -671.6951
  13   1.0000     -24.683229      -671.6648
  14   1.0000     -24.682530      -671.6458
  15   1.0000     -19.081300      -519.2286
  16   1.0000     -19.062812      -518.7255
  17   1.0000     -19.058982      -518.6213
  18   1.0000     -10.426447      -283.7181
  19   1.0000     -10.354373      -281.7568
  20   1.0000     -10.351065      -281.6668
  21   1.0000     -10.345560      -281.5170
  22   1.0000     -10.337048      -281.2854
  23   1.0000     -10.334438      -281.2143
  24   1.0000     -10.330830      -281.1162
  25   1.0000     -10.252534      -278.9856
  26   1.0000      -1.319825       -35.9143
  27   1.0000      -1.274228       -34.6735
  28   1.0000      -1.264960       -34.4213
  29   1.0000      -1.254509       -34.1369
  30   1.0000      -1.247620       -33.9495
  31   1.0000      -1.242746       -33.8168
  32   1.0000      -1.236330       -33.6422
  33   1.0000      -1.232306       -33.5327
  34   1.0000      -1.224764       -33.3275
  35   1.0000      -1.212382       -32.9906
  36   1.0000      -1.209764       -32.9194
  37   1.0000      -1.200650       -32.6713
  38   1.0000      -1.193116       -32.4663
  39   1.0000      -1.191229       -32.4150
  40   1.0000      -1.185610       -32.2621
  41   1.0000      -1.023898       -27.8617
  42   1.0000      -0.965821       -26.2813
  43   1.0000      -0.938752       -25.5448
  44   1.0000      -0.791156       -21.5285
  45   1.0000      -0.784905       -21.3583
  46   1.0000      -0.755992       -20.5716
  47   1.0000      -0.725537       -19.7429
  48   1.0000      -0.688169       -18.7260
  49   1.0000      -0.657499       -17.8915
  50   1.0000      -0.633419       -17.2362
  51   1.0000      -0.605733       -16.4828
  52   1.0000      -0.603890       -16.4327
  53   1.0000      -0.602053       -16.3827
  54   1.0000      -0.589572       -16.0431
  55   1.0000      -0.583628       -15.8813
  56   1.0000      -0.579712       -15.7748
  57   1.0000      -0.568477       -15.4690
  58   1.0000      -0.566424       -15.4132
  59   1.0000      -0.556878       -15.1534
  60   1.0000      -0.555583       -15.1182
  61   1.0000      -0.550248       -14.9730
  62   1.0000      -0.541722       -14.7410
  63   1.0000      -0.537236       -14.6189
  64   1.0000      -0.532453       -14.4888
  65   1.0000      -0.522464       -14.2170
  66   1.0000      -0.497898       -13.5485
  67   1.0000      -0.478412       -13.0182
  68   1.0000      -0.478373       -13.0172
  69   1.0000      -0.472438       -12.8557
  70   1.0000      -0.461101       -12.5472
  71   1.0000      -0.458662       -12.4808
  72   1.0000      -0.455005       -12.3813
  73   1.0000      -0.452998       -12.3267
  74   1.0000      -0.450127       -12.2486
  75   1.0000      -0.447009       -12.1637
  76   1.0000      -0.446596       -12.1525
  77   1.0000      -0.443368       -12.0646
  78   1.0000      -0.440696       -11.9919
  79   1.0000      -0.437985       -11.9182
  80   1.0000      -0.432014       -11.7557
  81   1.0000      -0.430180       -11.7058
  82   1.0000      -0.423751       -11.5309
  83   1.0000      -0.419621       -11.4185
  84   1.0000      -0.418724       -11.3940
  85   1.0000      -0.418587       -11.3903
  86   1.0000      -0.412213       -11.2169
  87   1.0000      -0.408557       -11.1174
  88   1.0000      -0.406573       -11.0634
  89   1.0000      -0.403082       -10.9684
  90   1.0000      -0.401651       -10.9295
  91   1.0000      -0.398811       -10.8522
  92   1.0000      -0.397559       -10.8181
  93   1.0000      -0.396189       -10.7808
  94   1.0000      -0.389536       -10.5998
  95   1.0000      -0.383291       -10.4299
  96   1.0000      -0.379638       -10.3305
  97   1.0000      -0.370378       -10.0785
  98   1.0000      -0.349398        -9.5076
  99   1.0000      -0.347158        -9.4467
 100   1.0000      -0.316456        -8.6112
 101   1.0000      -0.278699        -7.5838
 102   1.0000      -0.251093        -6.8326
 103   1.0000      -0.241548        -6.5729
 104   1.0000      -0.235617        -6.4115
 105   1.0000      -0.074497        -2.0272
 106   0.0000       0.023914         0.6507
 107   0.0000       0.045270         1.2319
 108   0.0000       0.058760         1.5989
 109   0.0000       0.066700         1.8150
 110   0.0000       0.073624         2.0034

                 SPIN DOWN ORBITALS
  NO   OCC          E(Eh)            E(eV)
   0   1.0000     -24.719856      -672.6615
   1   1.0000     -24.719759      -672.6588
   2   1.0000     -24.710891      -672.4175
   3   1.0000     -24.700121      -672.1245
   4   1.0000     -24.699910      -672.1187
   5   1.0000     -24.699106      -672.0968
   6   1.0000     -24.696630      -672.0295
   7   1.0000     -24.693001      -671.9307
   8   1.0000     -24.691558      -671.8914
   9   1.0000     -24.686009      -671.7405
  10   1.0000     -24.685026      -671.7137
  11   1.0000     -24.684867      -671.7094
  12   1.0000     -24.683586      -671.6745
  13   1.0000     -24.682582      -671.6472
  14   1.0000     -24.681824      -671.6266
  15   1.0000     -19.081300      -519.2286
  16   1.0000     -19.062648      -518.7210
  17   1.0000     -19.058765      -518.6154
  18   1.0000     -10.425008      -283.6789
  19   1.0000     -10.352166      -281.6968
  20   1.0000     -10.349935      -281.6360
  21   1.0000     -10.343350      -281.4569
  22   1.0000     -10.333531      -281.1897
  23   1.0000     -10.330975      -281.1201
  24   1.0000     -10.330339      -281.1028
  25   1.0000     -10.252353      -278.9807
  26   1.0000      -1.318817       -35.8868
  27   1.0000      -1.273274       -34.6475
  28   1.0000      -1.263352       -34.3775
  29   1.0000      -1.253283       -34.1036
  30   1.0000      -1.247324       -33.9414
  31   1.0000      -1.240984       -33.7689
  32   1.0000      -1.236125       -33.6367
  33   1.0000      -1.230435       -33.4818
  34   1.0000      -1.222808       -33.2743
  35   1.0000      -1.211799       -32.9747
  36   1.0000      -1.208769       -32.8923
  37   1.0000      -1.199815       -32.6486
  38   1.0000      -1.191875       -32.4326
  39   1.0000      -1.190868       -32.4052
  40   1.0000      -1.184117       -32.2215
  41   1.0000      -1.023504       -27.8509
  42   1.0000      -0.965809       -26.2810
  43   1.0000      -0.938369       -25.5343
  44   1.0000      -0.782987       -21.3062
  45   1.0000      -0.778939       -21.1960
  46   1.0000      -0.748069       -20.3560
  47   1.0000      -0.719391       -19.5756
  48   1.0000      -0.684284       -18.6203
  49   1.0000      -0.655037       -17.8245
  50   1.0000      -0.631252       -17.1772
  51   1.0000      -0.604981       -16.4624
  52   1.0000      -0.601018       -16.3545
  53   1.0000      -0.598384       -16.2828
  54   1.0000      -0.587362       -15.9829
  55   1.0000      -0.580203       -15.7881
  56   1.0000      -0.578496       -15.7417
  57   1.0000      -0.566969       -15.4280
  58   1.0000      -0.562499       -15.3064
  59   1.0000      -0.555234       -15.1087
  60   1.0000      -0.551941       -15.0191
  61   1.0000      -0.548367       -14.9218
  62   1.0000      -0.540650       -14.7118
  63   1.0000      -0.533087       -14.5060
  64   1.0000      -0.530092       -14.4245
  65   1.0000      -0.521170       -14.1818
  66   1.0000      -0.497828       -13.5466
  67   1.0000      -0.477947       -13.0056
  68   1.0000      -0.476313       -12.9611
  69   1.0000      -0.471761       -12.8373
  70   1.0000      -0.460526       -12.5315
  71   1.0000      -0.458118       -12.4660
  72   1.0000      -0.454635       -12.3712
  73   1.0000      -0.452588       -12.3156
  74   1.0000      -0.449255       -12.2248
  75   1.0000      -0.446388       -12.1468
  76   1.0000      -0.445742       -12.1293
  77   1.0000      -0.442531       -12.0419
  78   1.0000      -0.439618       -11.9626
  79   1.0000      -0.437258       -11.8984
  80   1.0000      -0.430906       -11.7255
  81   1.0000      -0.429065       -11.6754
  82   1.0000      -0.423093       -11.5129
  83   1.0000      -0.418648       -11.3920
  84   1.0000      -0.418062       -11.3761
  85   1.0000      -0.417599       -11.3634
  86   1.0000      -0.411311       -11.1923
  87   1.0000      -0.407211       -11.0808
  88   1.0000      -0.406058       -11.0494
  89   1.0000      -0.402009       -10.9392
  90   1.0000      -0.400399       -10.8954
  91   1.0000      -0.397213       -10.8087
  92   1.0000      -0.394497       -10.7348
  93   1.0000      -0.393319       -10.7027
  94   1.0000      -0.386362       -10.5134
  95   1.0000      -0.382208       -10.4004
  96   1.0000      -0.373659       -10.1678
  97   1.0000      -0.365335        -9.9413
  98   1.0000      -0.348847        -9.4926
  99   1.0000      -0.343583        -9.3494
 100   1.0000      -0.313689        -8.5359
 101   1.0000      -0.278689        -7.5835
 102   1.0000      -0.250100        -6.8056
 103   1.0000      -0.240922        -6.5558
 104   1.0000      -0.235007        -6.3949
 105   0.0000      -0.004855        -0.1321
 106   0.0000       0.034650         0.9429
 107   0.0000       0.050588         1.3766
 108   0.0000       0.062437         1.6990
 109   0.0000       0.069424         1.8891

MULLIKEN ATOMIC CHARGES AND SPIN POPULATIONS
--------------------------------------------
   0 C :    0.444653    0.071682
   1 C :    0.285813    0.136632
   2 C :    0.231578    0.247115
   3 C :    0.250281    0.249898
   4 C :    0.286610    0.146643
   5 C :    0.283213    0.063250
   6 C :    0.348093    0.024691
   7 C :    0.179961    0.008562
   8 F :   -0.178761   -0.000110
   9 F :   -0.178843   -0.000128
  10 F :   -0.190890    0.012212
  11 F :   -0.215188    0.002889
  12 F :   -0.214327    0.002871
  13 F :   -0.241023    0.004863
  14 F :   -0.237845    0.004509
  15 F :   -0.241640    0.003855
  16 F :   -0.236456    0.003544
  17 F :   -0.223504    0.001259
  18 F :   -0.222360    0.001563
  19 F :   -0.215717    0.000628
  20 F :   -0.209788    0.001097
  21 F :   -0.226932    0.000366
  22 F :   -0.222715    0.000401
  23 O :   -0.470487    0.006680
  24 O :   -0.528174    0.005007
  25 O :   -0.736230   -0.000020
  26 H :    0.323696    0.000011
  27 H :    0.356980    0.000028
Sum of atomic charges         :   -2.0000000

LOEWDIN ATOMIC CHARGES AND SPIN POPULATIONS
-------------------------------------------
   0 C :   -0.653312    0.060707
   1 C :   -0.478665    0.141382
   2 C :   -0.470889    0.217281
   3 C :   -0.471931    0.213424
   4 C :   -0.466982    0.134897
   5 C :   -0.457855    0.063852
   6 C :   -0.442522    0.028590
   7 C :   -0.670769    0.010472
   8 F :    0.195745    0.001668
   9 F :    0.195700    0.001636
  10 F :    0.156798    0.022334
  11 F :    0.154577    0.008328
  12 F :    0.155857    0.008143
  13 F :    0.120689    0.014204
  14 F :    0.126767    0.013437
  15 F :    0.120874    0.013222
  16 F :    0.128452    0.012567
  17 F :    0.152478    0.006768
  18 F :    0.151839    0.007229
  19 F :    0.172042    0.002271
  20 F :    0.175374    0.003081
  21 F :    0.147791    0.001283
  22 F :    0.151139    0.001496
  23 O :   -0.045006    0.006591
  24 O :   -0.065527    0.005157
  25 O :   -0.375072   -0.000004
  26 H :    0.153334    0.000007
  27 H :    0.139073   -0.000023

  Mayer bond orders larger than 0.100000
B(  0-C ,  1-C ) :   0.9611 B(  0-C ,  8-F ) :   1.1354 B(  0-C ,  9-F ) :   1.1353
B(  0-C , 10-F ) :   1.0886 B(  1-C ,  2-C ) :   0.9181 B(  1-C , 11-F ) :   1.0281
B(  1-C , 12-F ) :   1.0287 B(  2-C ,  3-C ) :   0.9147 B(  2-C , 13-F ) :   0.9890
B(  2-C , 14-F ) :   0.9926 B(  3-C ,  4-C ) :   0.9075 B(  3-C , 15-F ) :   0.9845
B(  3-C , 16-F ) :   0.9926 B(  4-C ,  5-C ) :   0.8838 B(  4-C , 17-F ) :   1.0219
B(  4-C , 18-F ) :   1.0231 B(  5-C ,  6-C ) :   0.8878 B(  5-C , 19-F ) :   1.0405
B(  5-C , 20-F ) :   1.0588 B(  6-C ,  7-C ) :   0.8743 B(  6-C , 21-F ) :   1.0218
B(  6-C , 22-F ) :   1.0472 B(  7-C , 23-O ) :   1.9263 B(  7-C , 24-O ) :   1.7010
B( 24-O , 27-H ) :   0.1174 B( 25-O , 26-H ) :   0.9039 B( 25-O , 27-H ) :   0.8149

Dispersion correction           -0.045452390
FINAL SINGLE POINT ENERGY     -2029.681291781705

DIPOLE MOMENT
-------------

Method             : SCF
Type of density    : Electron Density
Multiplicity       :   2
Irrep              :   0
Energy             : -2029.6358393912066731 Eh
Relativity type    :
Basis              : AO
                                X                 Y                 Z
Electronic contribution:      8.748094848      28.564897629       6.204953164
Nuclear contribution   :     -7.969080861     -22.194447259      -5.908705714
                        -----------------------------------------
Total Dipole Moment    :      0.779013987       6.370450370       0.296247450
                        -----------------------------------------
Magnitude (a.u.)       :      6.424738381
Magnitude (Debye)      :     16.330387166

VIBRATIONAL FREQUENCIES
-----------------------

Scaling factor for frequencies =  1.000000000  (already applied!)

     0:       0.00 cm**-1
     1:       0.00 cm**-1
     2:       0.00 cm**-1
     3:       0.00 cm**-1
     4:       0.00 cm**-1
     5:       0.00 cm**-1
     6:      18.65 cm**-1
     7:      31.30 cm**-1
     8:      32.02 cm**-1
     9:      35.38 cm**-1
    10:      43.98 cm**-1
    11:      48.55 cm**-1
    12:      53.54 cm**-1
    13:      60.72 cm**-1
    14:      63.77 cm**-1
    15:      70.34 cm**-1
    16:      73.26 cm**-1
    17:      94.59 cm**-1
    18:      99.91 cm**-1
    19:     129.95 cm**-1
    20:     157.26 cm**-1
    21:     180.42 cm**-1
    22:     190.64 cm**-1
    23:     205.07 cm**-1
    24:     213.54 cm**-1
    25:     230.88 cm**-1
    26:     238.80 cm**-1
    27:     244.73 cm**-1
    28:     251.71 cm**-1
    29:     260.89 cm**-1
    30:     274.07 cm**-1
    31:     312.56 cm**-1
    32:     319.44 cm**-1
    33:     322.25 cm**-1
    34:     328.03 cm**-1
    35:     335.54 cm**-1
    36:     346.17 cm**-1
    37:     361.03 cm**-1
    38:     365.16 cm**-1
    39:     375.23 cm**-1
    40:     409.12 cm**-1
    41:     419.93 cm**-1
    42:     460.25 cm**-1
    43:     468.30 cm**-1
    44:     505.81 cm**-1
    45:     513.11 cm**-1
    46:     530.51 cm**-1
    47:     547.34 cm**-1
    48:     563.91 cm**-1
    49:     574.48 cm**-1
    50:     589.52 cm**-1
    51:     602.07 cm**-1
    52:     615.52 cm**-1
    53:     634.29 cm**-1
    54:     667.94 cm**-1
    55:     672.78 cm**-1
    56:     699.38 cm**-1
    57:     736.13 cm**-1
    58:     742.03 cm**-1
    59:     800.11 cm**-1
    60:     815.35 cm**-1
    61:     863.34 cm**-1
    62:     869.55 cm**-1
    63:     941.63 cm**-1
    64:     954.03 cm**-1
    65:     974.09 cm**-1
    66:    1002.57 cm**-1
    67:    1012.99 cm**-1
    68:    1013.69 cm**-1
    69:    1027.05 cm**-1
    70:    1032.06 cm**-1
    71:    1070.58 cm**-1
    72:    1083.13 cm**-1
    73:    1084.56 cm**-1
    74:    1104.12 cm**-1
    75:    1127.27 cm**-1
    76:    1135.33 cm**-1
    77:    1148.51 cm**-1
    78:    1259.59 cm**-1
    79:    1365.89 cm**-1
    80:    1655.30 cm**-1
    81:    1699.27 cm**-1
    82:    3412.12 cm**-1
    83:    3803.19 cm**-1

IR SPECTRUM
-----------

 Mode   freq       eps      Int      T**2         TX        TY        TZ
       cm**-1   L/(mol*cm) km/mol    a.u.
----------------------------------------------------------------------------
  6:     18.65   0.000328    1.66  0.005492  (-0.033269 -0.060490 -0.026955)
  7:     31.30   0.000030    0.15  0.000300  (-0.009383  0.014119  0.003517)
  8:     32.02   0.000572    2.89  0.005574  (-0.041739 -0.036247  0.050179)
  9:     35.38   0.000184    0.93  0.001624  (-0.002678 -0.007183  0.039558)
 10:     43.98   0.000290    1.47  0.002059  ( 0.029587  0.010172  0.032861)
 11:     48.55   0.001571    7.94  0.010095  ( 0.034357 -0.008434 -0.094042)
 12:     53.54   0.001030    5.21  0.006005  ( 0.045120  0.014066 -0.061408)
 13:     60.72   0.001518    7.67  0.007800  ( 0.029877  0.036070 -0.074875)
 14:     63.77   0.014770   74.64  0.072284  ( 0.106162  0.129384 -0.210412)
 15:     70.34   0.006764   34.18  0.030011  ( 0.087436  0.107397 -0.104076)
 16:     73.26   0.006988   35.31  0.029765  ( 0.113359  0.073389 -0.107372)
 17:     94.59   0.002432   12.29  0.008022  (-0.029043  0.072411  0.043987)
 18:     99.91   0.000026    0.13  0.000082  (-0.004825 -0.004542 -0.006202)
 19:    129.95   0.035852  181.18  0.086093  ( 0.022513 -0.282175 -0.077222)
 20:    157.26   0.018436   93.17  0.036583  (-0.010212 -0.190014 -0.019321)
 21:    180.42   0.001829    9.24  0.003164  ( 0.042471  0.019040  0.031584)
 22:    190.64   0.002617   13.23  0.004284  (-0.062205  0.013298 -0.015432)
 23:    205.07   0.001574    7.95  0.002395  (-0.037147 -0.003437 -0.031677)
 24:    213.54   0.000310    1.57  0.000453  (-0.017244 -0.012433 -0.001119)
 25:    230.88   0.001264    6.39  0.001709  (-0.029570 -0.019563 -0.021255)
 26:    238.80   0.019584   98.97  0.025592  ( 0.003159  0.157705  0.026665)
 27:    244.73   0.000281    1.42  0.000358  ( 0.013998 -0.012715 -0.000849)
 28:    251.71   0.000149    0.75  0.000185  (-0.007609  0.011072 -0.002142)
 29:    260.89   0.000234    1.18  0.000279  ( 0.012633  0.009455  0.005522)
 30:    274.07   0.001327    6.71  0.001511  (-0.036340  0.000805 -0.013768)
 31:    312.56   0.002753   13.91  0.002749  ( 0.000674  0.051858  0.007699)
 32:    319.44   0.005869   29.66  0.005733  (-0.000792  0.074866  0.011308)
 33:    322.25   0.009511   48.06  0.009210  (-0.000279 -0.094172 -0.018484)
 34:    328.03   0.000077    0.39  0.000073  (-0.005359 -0.006516  0.001328)
 35:    335.54   0.004089   20.67  0.003803  ( 0.004728 -0.058830 -0.017884)
 36:    346.17   0.009118   46.08  0.008219  ( 0.003323 -0.089108 -0.016378)
 37:    361.03   0.000015    0.07  0.000013  (-0.003461  0.000309  0.000767)
 38:    365.16   0.000209    1.05  0.000178  (-0.005089 -0.002319 -0.012128)
 39:    375.23   0.002727   13.78  0.002268  (-0.024768 -0.028971 -0.028556)
 40:    409.12   0.015905   80.38  0.012132  ( 0.071844  0.037713  0.074483)
 41:    419.93   0.003460   17.49  0.002571  (-0.030952 -0.015696 -0.036971)
 42:    460.25   0.000407    2.06  0.000276  ( 0.014441  0.008208 -0.000501)
 43:    468.30   0.001115    5.63  0.000743  ( 0.012168 -0.005686  0.023715)
 44:    505.81   0.003656   18.47  0.002255  (-0.000695  0.045748  0.012733)
 45:    513.11   0.000112    0.57  0.000068  ( 0.000629 -0.005803 -0.005836)
 46:    530.51   0.004722   23.87  0.002778  ( 0.015436  0.045152 -0.022381)
 47:    547.34   0.000501    2.53  0.000285  ( 0.007047  0.011357  0.010333)
 48:    563.91   0.004207   21.26  0.002328  (-0.014506  0.037292  0.026968)
 49:    574.48   0.001773    8.96  0.000963  ( 0.005610  0.029450 -0.008007)
 50:    589.52   0.000422    2.13  0.000223  ( 0.005597  0.012296  0.006380)
 51:    602.07   0.002252   11.38  0.001167  ( 0.008139  0.032914  0.004192)
 52:    615.52   0.007557   38.19  0.003831  (-0.009344  0.058305  0.018563)
 53:    634.29   0.077851  393.42  0.038301  (-0.001815 -0.193376 -0.030063)
 54:    667.94   0.013335   67.39  0.006230  ( 0.006023 -0.075948 -0.020632)
 55:    672.78   0.047208  238.57  0.021897  (-0.004719  0.146245  0.022070)
 56:    699.38   0.022902  115.74  0.010219  ( 0.005399  0.100121  0.012879)
 57:    736.13   0.029361  148.38  0.012447  ( 0.006919 -0.109820 -0.018395)
 58:    742.03   0.022094  111.65  0.009292  ( 0.061683  0.002890 -0.074016)
 59:    800.11   0.015414   77.90  0.006012  (-0.028658 -0.052851  0.048962)
 60:    815.35   0.047223  238.64  0.018074  ( 0.004852  0.134290 -0.004031)
 61:    863.34   0.001701    8.60  0.000615  ( 0.002454  0.022146  0.010879)
 62:    869.55   0.042136  212.94  0.015122  ( 0.008878 -0.120127 -0.024743)
 63:    941.63   0.102068  515.81  0.033826  ( 0.014950 -0.172253  0.062701)
 64:    954.03   0.024680  124.72  0.008073  (-0.016303 -0.084681 -0.025222)
 65:    974.09   0.111340  562.67  0.035670  (-0.068569 -0.175382 -0.014456)
 66:   1002.57   0.063740  322.12  0.019840  (-0.051320  0.103443  0.080658)
 67:   1012.99   0.041785  211.17  0.012873  ( 0.085803 -0.072573  0.015602)
 68:   1013.69   0.223084  1127.38  0.068677  (-0.079574  0.196125  0.154530)
 69:   1027.05   0.112264  567.34  0.034111  ( 0.100656  0.009293  0.154573)
 70:   1032.06   0.168354  850.79  0.050905  (-0.117441  0.164169  0.100804)
 71:   1070.58   0.084292  425.98  0.024570  (-0.098138 -0.112193 -0.048498)
 72:   1083.13   0.125733  635.40  0.036226  ( 0.151635 -0.063470  0.095937)
 73:   1084.56   0.039081  197.50  0.011245  (-0.012308 -0.048744  0.093367)
 74:   1104.12   0.059207  299.21  0.016734  (-0.084350  0.037538  0.090609)
 75:   1127.27   0.096214  486.22  0.026635  (-0.008314 -0.162949  0.003674)
 76:   1135.33   0.104284  527.01  0.028664  (-0.106970  0.024047 -0.129009)
 77:   1148.51   0.255742  1292.42  0.069488  (-0.039794 -0.258986 -0.028832)
 78:   1259.59   0.133030  672.28  0.032958  ( 0.041838  0.176655  0.000836)
 79:   1365.89   0.141322  714.19  0.032288  ( 0.040374  0.174313  0.016518)
 80:   1655.30   0.028185  142.43  0.005313  (-0.047587  0.055208 -0.001018)
 81:   1699.27   0.191432  967.42  0.035156  (-0.172478  0.033264 -0.065578)
 82:   3412.12   0.238140  1203.46  0.021780  ( 0.126716  0.015080  0.074130)
 83:   3803.19   0.017001   85.92  0.001395  ( 0.020280  0.020723  0.023544)

--------------------------
THERMOCHEMISTRY AT 298.15K
--------------------------

Temperature         ...   298.15 K
Pressure            ...     1.00 atm
Total Mass          ...   431.07 AMU
Quasi RRHO          ...     True
Cut-Off Frequency   ...     1.00 cm^-1

Throughout the following assumptions are being made:
  (1) The electronic state is orbitally nondegenerate
      but the spin degeneracy is treated
  (2) There are no thermally accessible electronically excited states
  (3) Hindered rotations indicated by low frequency modes are not
      treated as such but are treated as vibrations and this may
      cause some error
  (4) All equations used are the standard statistical mechanics
      equations for an ideal gas
  (5) All vibrations are strictly harmonic

freq.      18.65  E(vib)   ...       0.57
freq.      31.30  E(vib)   ...       0.55
freq.      32.02  E(vib)   ...       0.55
freq.      35.38  E(vib)   ...       0.54
freq.      43.98  E(vib)   ...       0.53
freq.      48.55  E(vib)   ...       0.53
freq.      53.54  E(vib)   ...       0.52
freq.      60.72  E(vib)   ...       0.51
freq.      63.77  E(vib)   ...       0.51
freq.      70.34  E(vib)   ...       0.50
freq.      73.26  E(vib)   ...       0.49
freq.      94.59  E(vib)   ...       0.47
freq.      99.91  E(vib)   ...       0.46
freq.     129.95  E(vib)   ...       0.43
freq.     157.26  E(vib)   ...       0.40
freq.     180.42  E(vib)   ...       0.37
freq.     190.64  E(vib)   ...       0.36
freq.     205.07  E(vib)   ...       0.35
freq.     213.54  E(vib)   ...       0.34
freq.     230.88  E(vib)   ...       0.32
freq.     238.80  E(vib)   ...       0.32
freq.     244.73  E(vib)   ...       0.31
freq.     251.71  E(vib)   ...       0.30
freq.     260.89  E(vib)   ...       0.30
freq.     274.07  E(vib)   ...       0.28
freq.     312.56  E(vib)   ...       0.25
freq.     319.44  E(vib)   ...       0.25
freq.     322.25  E(vib)   ...       0.25
freq.     328.03  E(vib)   ...       0.24
freq.     335.54  E(vib)   ...       0.24
freq.     346.17  E(vib)   ...       0.23
freq.     361.03  E(vib)   ...       0.22
freq.     365.16  E(vib)   ...       0.22
freq.     375.23  E(vib)   ...       0.21
freq.     409.12  E(vib)   ...       0.19
freq.     419.93  E(vib)   ...       0.18
freq.     460.25  E(vib)   ...       0.16
freq.     468.30  E(vib)   ...       0.16
freq.     505.81  E(vib)   ...       0.14
freq.     513.11  E(vib)   ...       0.13
freq.     530.51  E(vib)   ...       0.13
freq.     547.34  E(vib)   ...       0.12
freq.     563.91  E(vib)   ...       0.11
freq.     574.48  E(vib)   ...       0.11
freq.     589.52  E(vib)   ...       0.10
freq.     602.07  E(vib)   ...       0.10
freq.     615.52  E(vib)   ...       0.10
freq.     634.29  E(vib)   ...       0.09
freq.     667.94  E(vib)   ...       0.08
freq.     672.78  E(vib)   ...       0.08
freq.     699.38  E(vib)   ...       0.07
freq.     736.13  E(vib)   ...       0.06
freq.     742.03  E(vib)   ...       0.06
freq.     800.11  E(vib)   ...       0.05
freq.     815.35  E(vib)   ...       0.05
freq.     863.34  E(vib)   ...       0.04
freq.     869.55  E(vib)   ...       0.04
freq.     941.63  E(vib)   ...       0.03
freq.     954.03  E(vib)   ...       0.03
freq.     974.09  E(vib)   ...       0.03
freq.    1002.57  E(vib)   ...       0.02
freq.    1012.99  E(vib)   ...       0.02
freq.    1013.69  E(vib)   ...       0.02
freq.    1027.05  E(vib)   ...       0.02
freq.    1032.06  E(vib)   ...       0.02
freq.    1070.58  E(vib)   ...       0.02
freq.    1083.13  E(vib)   ...       0.02
freq.    1084.56  E(vib)   ...       0.02
freq.    1104.12  E(vib)   ...       0.02
freq.    1127.27  E(vib)   ...       0.01
freq.    1135.33  E(vib)   ...       0.01
freq.    1148.51  E(vib)   ...       0.01
freq.    1259.59  E(vib)   ...       0.01
freq.    1365.89  E(vib)   ...       0.01
freq.    1655.30  E(vib)   ...       0.00
freq.    1699.27  E(vib)   ...       0.00
freq.    3412.12  E(vib)   ...       0.00
freq.    3803.19  E(vib)   ...       0.00

------------
INNER ENERGY
------------

The inner energy is: U= E(el) + E(ZPE) + E(vib) + E(rot) + E(trans)
    E(el)   - is the total energy from the electronic structure calculation
              = E(kin-el) + E(nuc-el) + E(el-el) + E(nuc-nuc)
    E(ZPE)  - the the zero temperature vibrational energy from the frequency calculation
    E(vib)  - the the finite temperature correction to E(ZPE) due to population
              of excited vibrational states
    E(rot)  - is the rotational thermal energy
    E(trans)- is the translational thermal energy

Summary of contributions to the inner energy U:
Electronic energy                ...  -2029.68129178 Eh
Zero point energy                ...      0.11294497 Eh      70.87 kcal/mol
Thermal vibrational correction   ...      0.02478065 Eh      15.55 kcal/mol
Thermal rotational correction    ...      0.00141627 Eh       0.89 kcal/mol
Thermal translational correction ...      0.00141627 Eh       0.89 kcal/mol
-----------------------------------------------------------------------
Total thermal energy                  -2029.54073362 Eh

Summary of corrections to the electronic energy:
(perhaps to be used in another calculation)
Total thermal correction                  0.02761319 Eh      17.33 kcal/mol
Non-thermal (ZPE) correction              0.11294497 Eh      70.87 kcal/mol
-----------------------------------------------------------------------
Total correction                          0.14055816 Eh      88.20 kcal/mol

--------
ENTHALPY
--------

The enthalpy is H = U + kB*T
                kB is Boltzmann's constant
Total thermal energy              ...  -2029.54073362 Eh
Thermal Enthalpy correction       ...      0.00094421 Eh       0.59 kcal/mol
-----------------------------------------------------------------------
Total Enthalpy                    ...  -2029.53978941 Eh

Note: Only C1 symmetry has been detected, increase convergence thresholds
      if your molecule has a higher symmetry. Symmetry factor of 1.0 is
      used for the rotational entropy correction.

Note: Rotational entropy computed according to Herzberg
Infrared and Raman Spectra, Chapter V,1, Van Nostrand Reinhold, 1945
Point Group:  C1, Symmetry Number:   1
Rotational constants in cm-1:     0.017001     0.003082     0.002970

Vibrational entropy computed according to the QRRHO of S. Grimme
Chem.Eur.J. 2012 18 9955 using a reference frequency of 100.0 cm-1

-------
ENTROPY
-------

The entropy contributions are T*S = T*(S(el)+S(vib)+S(rot)+S(trans))

                             ****ORCA TERMINATED NORMALLY****
TOTAL RUN TIME: 0 days 0 hours 24 minutes 53 seconds 627 msec
