                         Program Version 6.0.1  -  RELEASE   -
|  1> !r2scanh def2-TZVP opt d3 TightSCF SlowConv defgrid2
|  2>
|  3> %pal
|  4> nprocs 20
|  5> end
|  6>
|  7> %scf
|  8> MaxIter 1500
|  9> end
| 10>
| 11> %maxcore 8000
| 12>
| 13> !CPCM
| 14> %cpcm smd true
| 15> SMDsolvent "ACETONITRILE"
| 16> end
| 17>
| 18> * xyz 0 2
| 19> 6        4.790427000     -0.033865800     -0.529943200
| 20> 8        5.449345000     -1.206924000     -0.894594600
| 21> 8        4.978223000      1.323071000     -0.737377200
| 22> 6        3.506687600     -0.338741600      0.376153800
| 23> 6        2.222300000      0.400524800     -0.110681600
| 24> 6        0.900506800     -0.386389800      0.175703000
| 25> 6       -0.395261200      0.487294000      0.065549000
| 26> 6       -1.705693600     -0.364773800     -0.068373600
| 27> 6       -3.005136200      0.445344800      0.258164000
| 28> 6       -4.319880200     -0.214526000     -0.270540800
| 29> 9        3.211587400     -1.692050400      0.412735200
| 30> 9        3.741061800      0.055285800      1.689948800
| 31> 9        2.125696800      1.616867800      0.483236600
| 32> 9        2.314152400      0.589704000     -1.455769200
| 33> 9        0.794028800     -1.413561400     -0.700839000
| 34> 9        0.958350600     -0.884509000      1.435093400
| 35> 9       -0.498373400      1.260265600      1.173340200
| 36> 9       -0.299075000      1.289512600     -1.020910800
| 37> 9       -1.792381400     -0.831391600     -1.336863600
| 38> 9       -2.918792200      1.679227200     -0.295171200
| 39> 9       -3.119771000      0.573779800      1.598579800
| 40> 9       -4.383115600     -1.504377600      0.089127600
| 41> 9       -5.365669800      0.430528600      0.260394200
| 42> 9       -4.396020400     -0.128550600     -1.602941800
| 43> 1        5.903122371     -2.014774547     -1.145719253
| 44> *
| 45>
| 46>                          ****END OF INPUT****
 Total Charge           Charge          ....    0
 Multiplicity           Mult            ....    2
 Number of Electrons    NEL             ....  191
Dispersion correction           -0.008060485
FINAL SINGLE POINT ENERGY     -1853.445766488154
Dispersion correction             ... done (  0.0 sec)
Dispersion correction           -0.008119129
FINAL SINGLE POINT ENERGY     -1853.501855364973
Dispersion correction             ... done (  0.0 sec)
Dispersion correction           -0.008158319
FINAL SINGLE POINT ENERGY     -1853.515194382556
Dispersion correction             ... done (  0.0 sec)
FINAL SINGLE POINT ENERGY     -1853.521798170590
FINAL SINGLE POINT ENERGY     -1853.522017631589
FINAL SINGLE POINT ENERGY     -1853.525437005725
FINAL SINGLE POINT ENERGY     -1853.527011797479
FINAL SINGLE POINT ENERGY     -1853.531727657288
FINAL SINGLE POINT ENERGY     -1853.538264869880
FINAL SINGLE POINT ENERGY     -1853.542214828200
FINAL SINGLE POINT ENERGY     -1853.569228730448
FINAL SINGLE POINT ENERGY     -1853.569232511710
FINAL SINGLE POINT ENERGY     -1853.569234861653
FINAL SINGLE POINT ENERGY     -1853.569237178005
FINAL SINGLE POINT ENERGY     -1853.569240325992
FINAL SINGLE POINT ENERGY     -1853.569243378892
FINAL SINGLE POINT ENERGY     -1853.569245867671
Dispersion correction             ... done (  0.0 sec)
Dispersion correction           -0.008290723
FINAL SINGLE POINT ENERGY     -1853.569247459602
Dispersion correction             ... done (  0.0 sec)
Dispersion correction           -0.008290060
FINAL SINGLE POINT ENERGY     -1853.569248403371
Dispersion correction             ... done (  0.0 sec)
                    ***********************HURRAY********************

CARTESIAN COORDINATES (ANGSTROEM)
---------------------------------
  C      4.636299   -0.313458    0.075709
  O      5.027443   -1.232081   -0.785503
  O      5.257718    0.629238    0.467919
  C      3.187507   -0.573006    0.547267
  C      2.178704    0.241611   -0.307429
  C      0.698689   -0.204250   -0.127512
  C     -0.349256    0.856773   -0.575380
  C     -1.731527    0.297783   -0.684271
  C     -2.826244    0.516795    0.301655
  C     -3.995320   -0.489383    0.157184
  F      2.870037   -1.877516    0.458808
  F      3.082210   -0.188590    1.827406
  F      2.304000    1.537453    0.017602
  F      2.511703    0.091542   -1.601572
  F      0.498364   -1.312432   -0.860422
  F      0.467618   -0.493145    1.162549
  F     -0.351777    1.864897    0.315147
  F      0.039047    1.328251   -1.780373
  F     -2.020682   -0.329650   -1.803818
  F     -3.359614    1.760553    0.193639
  F     -2.340758    0.402929    1.555714
  F     -3.538607   -1.735564    0.222330
  F     -4.858695   -0.296368    1.146446
  F     -4.626179   -0.317404   -0.998103
  H      5.935640   -1.028007   -1.076694

 Multiplicity           Mult            ....    2
 Number of Electrons    NEL             ....  191
 Basis Dimension        Dim             ....  750

ORBITAL ENERGIES
----------------
                 SPIN UP ORBITALS
  NO   OCC          E(Eh)            E(eV)
   0   1.0000     -24.748697      -673.4463
   1   1.0000     -24.731919      -672.9897
   2   1.0000     -24.731862      -672.9882
   3   1.0000     -24.731232      -672.9710
   4   1.0000     -24.731047      -672.9660
   5   1.0000     -24.730939      -672.9631
   6   1.0000     -24.730780      -672.9587
   7   1.0000     -24.730455      -672.9499
   8   1.0000     -24.729280      -672.9179
   9   1.0000     -24.727437      -672.8678
  10   1.0000     -24.725941      -672.8271
  11   1.0000     -24.723021      -672.7476
  12   1.0000     -24.721385      -672.7031
  13   1.0000     -24.720955      -672.6914
  14   1.0000     -19.196837      -522.3725
  15   1.0000     -19.140874      -520.8497
  16   1.0000     -10.438661      -284.0504
  17   1.0000     -10.387428      -282.6563
  18   1.0000     -10.384172      -282.5677
  19   1.0000     -10.384159      -282.5673
  20   1.0000     -10.383732      -282.5557
  21   1.0000     -10.375289      -282.3260
  22   1.0000     -10.326229      -280.9910
  23   1.0000     -10.313628      -280.6481
  24   1.0000      -1.360122       -37.0108
  25   1.0000      -1.338765       -36.4297
  26   1.0000      -1.322567       -35.9889
  27   1.0000      -1.314016       -35.7562
  28   1.0000      -1.310160       -35.6513
  29   1.0000      -1.308391       -35.6031
  30   1.0000      -1.304483       -35.4968
  31   1.0000      -1.269489       -34.5446
  32   1.0000      -1.268963       -34.5302
  33   1.0000      -1.266434       -34.4614
  34   1.0000      -1.259964       -34.2854
  35   1.0000      -1.254797       -34.1448
  36   1.0000      -1.250543       -34.0290
  37   1.0000      -1.249873       -34.0108
  38   1.0000      -1.152612       -31.3642
  39   1.0000      -1.065627       -28.9972
  40   1.0000      -0.861370       -23.4391
  41   1.0000      -0.836477       -22.7617
  42   1.0000      -0.808661       -22.0048
  43   1.0000      -0.775138       -21.0926
  44   1.0000      -0.729579       -19.8529
  45   1.0000      -0.696479       -18.9522
  46   1.0000      -0.669618       -18.2212
  47   1.0000      -0.661043       -17.9879
  48   1.0000      -0.636218       -17.3124
  49   1.0000      -0.634372       -17.2621
  50   1.0000      -0.631028       -17.1712
  51   1.0000      -0.624202       -16.9854
  52   1.0000      -0.623653       -16.9705
  53   1.0000      -0.616336       -16.7714
  54   1.0000      -0.603491       -16.4218
  55   1.0000      -0.600545       -16.3417
  56   1.0000      -0.593617       -16.1531
  57   1.0000      -0.588955       -16.0263
  58   1.0000      -0.583347       -15.8737
  59   1.0000      -0.578942       -15.7538
  60   1.0000      -0.570390       -15.5211
  61   1.0000      -0.563228       -15.3262
  62   1.0000      -0.527417       -14.3518
  63   1.0000      -0.512167       -13.9368
  64   1.0000      -0.501208       -13.6386
  65   1.0000      -0.496222       -13.5029
  66   1.0000      -0.493966       -13.4415
  67   1.0000      -0.489203       -13.3119
  68   1.0000      -0.486893       -13.2490
  69   1.0000      -0.485893       -13.2218
  70   1.0000      -0.482989       -13.1428
  71   1.0000      -0.475643       -12.9429
  72   1.0000      -0.473702       -12.8901
  73   1.0000      -0.469550       -12.7771
  74   1.0000      -0.464567       -12.6415
  75   1.0000      -0.461676       -12.5628
  76   1.0000      -0.456246       -12.4151
  77   1.0000      -0.455497       -12.3947
  78   1.0000      -0.451783       -12.2936
  79   1.0000      -0.447944       -12.1892
  80   1.0000      -0.447195       -12.1688
  81   1.0000      -0.445473       -12.1219
  82   1.0000      -0.438354       -11.9282
  83   1.0000      -0.433802       -11.8044
  84   1.0000      -0.433238       -11.7890
  85   1.0000      -0.429970       -11.7001
  86   1.0000      -0.428461       -11.6590
  87   1.0000      -0.426819       -11.6143
  88   1.0000      -0.425002       -11.5649
  89   1.0000      -0.417064       -11.3489
  90   1.0000      -0.395190       -10.7537
  91   1.0000      -0.371957       -10.1215
  92   1.0000      -0.351421        -9.5626
  93   1.0000      -0.345416        -9.3993
  94   1.0000      -0.304234        -8.2786
  95   1.0000      -0.270871        -7.3708
  96   0.0000      -0.060875        -1.6565
  97   0.0000      -0.009709        -0.2642
  98   0.0000       0.019610         0.5336
  99   0.0000       0.031313         0.8521
 100   0.0000       0.055421         1.5081

                 SPIN DOWN ORBITALS
  NO   OCC          E(Eh)            E(eV)
   0   1.0000     -24.743417      -673.3026
   1   1.0000     -24.731866      -672.9883
   2   1.0000     -24.731845      -672.9877
   3   1.0000     -24.731159      -672.9691
   4   1.0000     -24.731015      -672.9651
   5   1.0000     -24.730946      -672.9633
   6   1.0000     -24.730765      -672.9583
   7   1.0000     -24.730444      -672.9496
   8   1.0000     -24.728926      -672.9083
   9   1.0000     -24.726534      -672.8432
  10   1.0000     -24.725152      -672.8056
  11   1.0000     -24.723023      -672.7477
  12   1.0000     -24.721380      -672.7030
  13   1.0000     -24.719024      -672.6388
  14   1.0000     -19.196833      -522.3724
  15   1.0000     -19.140857      -520.8492
  16   1.0000     -10.438569      -284.0479
  17   1.0000     -10.388536      -282.6864
  18   1.0000     -10.385091      -282.5927
  19   1.0000     -10.383654      -282.5536
  20   1.0000     -10.383432      -282.5476
  21   1.0000     -10.375236      -282.3245
  22   1.0000     -10.326215      -280.9906
  23   1.0000     -10.296629      -280.1855
  24   1.0000      -1.359874       -37.0041
  25   1.0000      -1.338299       -36.4170
  26   1.0000      -1.321161       -35.9506
  27   1.0000      -1.312530       -35.7157
  28   1.0000      -1.309179       -35.6246
  29   1.0000      -1.307499       -35.5789
  30   1.0000      -1.296803       -35.2878
  31   1.0000      -1.269207       -34.5369
  32   1.0000      -1.268682       -34.5226
  33   1.0000      -1.266310       -34.4581
  34   1.0000      -1.259476       -34.2721
  35   1.0000      -1.253936       -34.1213
  36   1.0000      -1.250532       -34.0287
  37   1.0000      -1.247126       -33.9360
  38   1.0000      -1.152595       -31.3637
  39   1.0000      -1.065602       -28.9965
  40   1.0000      -0.847264       -23.0552
  41   1.0000      -0.831222       -22.6187
  42   1.0000      -0.807510       -21.9735
  43   1.0000      -0.769156       -20.9298
  44   1.0000      -0.724698       -19.7200
  45   1.0000      -0.694708       -18.9040
  46   1.0000      -0.664983       -18.0951
  47   1.0000      -0.660673       -17.9778
  48   1.0000      -0.634484       -17.2652
  49   1.0000      -0.632690       -17.2164
  50   1.0000      -0.627917       -17.0865
  51   1.0000      -0.623491       -16.9660
  52   1.0000      -0.623074       -16.9547
  53   1.0000      -0.615607       -16.7515
  54   1.0000      -0.602355       -16.3909
  55   1.0000      -0.598193       -16.2777
  56   1.0000      -0.591931       -16.1073
  57   1.0000      -0.586700       -15.9649
  58   1.0000      -0.579443       -15.7675
  59   1.0000      -0.577641       -15.7184
  60   1.0000      -0.568564       -15.4714
  61   1.0000      -0.562963       -15.3190
  62   1.0000      -0.512147       -13.9362
  63   1.0000      -0.499911       -13.6033
  64   1.0000      -0.499002       -13.5785
  65   1.0000      -0.495837       -13.4924
  66   1.0000      -0.492279       -13.3956
  67   1.0000      -0.487975       -13.2785
  68   1.0000      -0.486198       -13.2301
  69   1.0000      -0.483948       -13.1689
  70   1.0000      -0.482506       -13.1297
  71   1.0000      -0.474410       -12.9094
  72   1.0000      -0.472068       -12.8456
  73   1.0000      -0.468758       -12.7556
  74   1.0000      -0.463534       -12.6134
  75   1.0000      -0.460345       -12.5266
  76   1.0000      -0.455402       -12.3921
  77   1.0000      -0.453786       -12.3481
  78   1.0000      -0.449566       -12.2333
  79   1.0000      -0.446628       -12.1534
  80   1.0000      -0.445815       -12.1313
  81   1.0000      -0.444511       -12.0958
  82   1.0000      -0.437817       -11.9136
  83   1.0000      -0.432686       -11.7740
  84   1.0000      -0.431910       -11.7529
  85   1.0000      -0.429249       -11.6805
  86   1.0000      -0.428072       -11.6484
  87   1.0000      -0.425925       -11.5900
  88   1.0000      -0.423276       -11.5179
  89   1.0000      -0.416131       -11.3235
  90   1.0000      -0.393215       -10.6999
  91   1.0000      -0.369331       -10.0500
  92   1.0000      -0.351249        -9.5580
  93   1.0000      -0.342846        -9.3293
  94   1.0000      -0.303606        -8.2615
  95   0.0000      -0.129407        -3.5214
  96   0.0000      -0.059382        -1.6159
  97   0.0000      -0.007346        -0.1999
  98   0.0000       0.024290         0.6610
  99   0.0000       0.033568         0.9134

MULLIKEN ATOMIC CHARGES AND SPIN POPULATIONS
--------------------------------------------
   0 C :    0.282570    0.000430
   1 O :   -0.365525    0.000079
   2 O :   -0.326585    0.000560
   3 C :    0.411384    0.001983
   4 C :    0.287760    0.004716
   5 C :    0.306432    0.028287
   6 C :    0.390859   -0.026459
   7 C :    0.107681    0.839925
   8 C :    0.361376   -0.008416
   9 C :    0.473380   -0.003242
  10 F :   -0.174518    0.000026
  11 F :   -0.170613    0.000127
  12 F :   -0.167016   -0.000113
  13 F :   -0.169781    0.000249
  14 F :   -0.169853    0.000571
  15 F :   -0.169863    0.000406
  16 F :   -0.167758    0.005610
  17 F :   -0.169611    0.015753
  18 F :   -0.142249    0.093423
  19 F :   -0.174298    0.032386
  20 F :   -0.170779    0.011786
  21 F :   -0.159510    0.000431
  22 F :   -0.154868    0.000218
  23 F :   -0.157527    0.001191
  24 H :    0.388911    0.000072
Sum of atomic charges         :   -0.0000000

LOEWDIN ATOMIC CHARGES AND SPIN POPULATIONS
-------------------------------------------
   0 C :   -0.496291    0.000515
   1 O :    0.161212    0.000085
   2 O :    0.134131    0.000466
   3 C :   -0.464434    0.001940
   4 C :   -0.468063    0.004984
   5 C :   -0.466623    0.022802
   6 C :   -0.489654    0.058368
   7 C :   -0.163181    0.662670
   8 C :   -0.490829    0.058795
   9 C :   -0.674724    0.002096
  10 F :    0.216492   -0.000038
  11 F :    0.222605    0.000133
  12 F :    0.231997   -0.000105
  13 F :    0.227381    0.000298
  14 F :    0.229250    0.001035
  15 F :    0.231804    0.000705
  16 F :    0.227609    0.006144
  17 F :    0.218499    0.015589
  18 F :    0.269826    0.110306
  19 F :    0.200345    0.035036
  20 F :    0.216436    0.015152
  21 F :    0.229998    0.001132
  22 F :    0.231403    0.000347
  23 F :    0.230082    0.001508
  24 H :    0.234728    0.000035

  Mayer bond orders larger than 0.100000
B(  0-C ,  1-O ) :   1.2949 B(  0-C ,  2-O ) :   2.0424 B(  0-C ,  3-C ) :   0.8834
B(  1-O , 24-H ) :   0.8173 B(  3-C ,  4-C ) :   0.9453 B(  3-C , 10-F ) :   1.0804
B(  3-C , 11-F ) :   1.0996 B(  4-C ,  5-C ) :   0.9240 B(  4-C , 12-F ) :   1.0829
B(  4-C , 13-F ) :   1.0755 B(  5-C ,  6-C ) :   0.9298 B(  5-C , 14-F ) :   1.0759
B(  5-C , 15-F ) :   1.0798 B(  6-C ,  7-C ) :   1.0037 B(  6-C , 16-F ) :   1.0855
B(  6-C , 17-F ) :   1.0690 B(  7-C ,  8-C ) :   1.0389 B(  7-C , 18-F ) :   1.1258
B(  8-C ,  9-C ) :   0.9427 B(  8-C , 19-F ) :   1.0753 B(  8-C , 20-F ) :   1.0674
B(  9-C , 21-F ) :   1.1337 B(  9-C , 22-F ) :   1.1360 B(  9-C , 23-F ) :   1.1339

Dispersion correction           -0.008289705
FINAL SINGLE POINT ENERGY     -1853.569248925586

DIPOLE MOMENT
-------------

Method             : SCF
Type of density    : Electron Density
Multiplicity       :   2
Irrep              :   0
Energy             : -1853.5609592202126805 Eh
Relativity type    :
Basis              : AO
                                X                 Y                 Z
Electronic contribution:    -14.111429400       0.632182382       0.480491975
Nuclear contribution   :     14.815439641      -1.328356388      -1.375287196
                        -----------------------------------------
Total Dipole Moment    :      0.704010241      -0.696174006      -0.894795221
                        -----------------------------------------
Magnitude (a.u.)       :      1.334521320
Magnitude (Debye)      :      3.392083623

Rotational constants in cm-1:             0.020404             0.004108             0.004067
Rotational constants in MHz :           611.686423           123.161239           121.914328

                             ****ORCA TERMINATED NORMALLY****
TOTAL RUN TIME: 0 days 1 hours 21 minutes 13 seconds 668 msec
