                         Program Version 6.0.1  -  RELEASE   -
|  1> !r2scanh def2-TZVP freq d3 TightSCF SlowConv defgrid2
|  2>
|  3> %pal
|  4> nprocs 20
|  5> end
|  6>
|  7> %scf
|  8> MaxIter 1500
|  9> end
| 10>
| 11> %maxcore 8000
| 12>
| 13> !CPCM
| 14> %cpcm smd true
| 15> SMDsolvent "ACETONITRILE"
| 16> end
| 17>
| 18> * xyz -1 2
| 19> 6        7.930283000     27.233140000      2.969767000
| 20> 6        6.628072000     26.696745000      2.315146000
| 21> 6        6.692988000     25.194917000      1.920586000
| 22> 6        5.309028000     24.533260000      1.652052000
| 23> 6        5.403467000     23.203417000      0.974813000
| 24> 6        5.563560000     21.854049000      1.596236000
| 25> 6        6.743681000     21.030287000      1.025573000
| 26> 6        7.091762000     19.781561000      1.910322000
| 27> 9        8.989186000     26.903660000      2.237849000
| 28> 9        8.080505000     26.746625000      4.193987000
| 29> 9        7.857092000     28.557200000      3.046059000
| 30> 9        5.625343000     26.898401000      3.183942000
| 31> 9        6.398834000     27.422622000      1.211937000
| 32> 9        7.426406000     25.091920000      0.798755000
| 33> 9        7.302806000     24.506133000      2.899383000
| 34> 9        4.660860000     24.412432000      2.824118000
| 35> 9        4.612714000     25.374528000      0.853110000
| 36> 9        5.492877000     23.250667000     -0.341391000
| 37> 9        5.764572000     22.001917000      2.926771000
| 38> 9        4.421262000     21.137717000      1.432324000
| 39> 9        6.423091000     20.654604000     -0.239964000
| 40> 9        7.798192000     21.882735000      0.923892000
| 41> 8        8.106687000     19.882983000      2.597539000
| 42> 8        6.270205000     18.850598000      1.802523000
| 43> 8        4.187723000     18.202695000      0.128643000
| 44> 1        4.594899000     17.478416000     -0.354346000
| 45> 1        4.905033000     18.535176000      0.705866000
| 46> *
| 47>
| 48>                          ****END OF INPUT****

CARTESIAN COORDINATES (ANGSTROEM)
---------------------------------
  C      7.930283   27.233140    2.969767
  C      6.628072   26.696745    2.315146
  C      6.692988   25.194917    1.920586
  C      5.309028   24.533260    1.652052
  C      5.403467   23.203417    0.974813
  C      5.563560   21.854049    1.596236
  C      6.743681   21.030287    1.025573
  C      7.091762   19.781561    1.910322
  F      8.989186   26.903660    2.237849
  F      8.080505   26.746625    4.193987
  F      7.857092   28.557200    3.046059
  F      5.625343   26.898401    3.183942
  F      6.398834   27.422622    1.211937
  F      7.426406   25.091920    0.798755
  F      7.302806   24.506133    2.899383
  F      4.660860   24.412432    2.824118
  F      4.612714   25.374528    0.853110
  F      5.492877   23.250667   -0.341391
  F      5.764572   22.001917    2.926771
  F      4.421262   21.137717    1.432324
  F      6.423091   20.654604   -0.239964
  F      7.798192   21.882735    0.923892
  O      8.106687   19.882983    2.597539
  O      6.270205   18.850598    1.802523
  O      4.187723   18.202695    0.128643
  H      4.594899   17.478416   -0.354346
  H      4.905033   18.535176    0.705866

 Total Charge           Charge          ....   -1
 Multiplicity           Mult            ....    2
 Number of Electrons    NEL             ....  201
 Basis Dimension        Dim             ....  787

ORBITAL ENERGIES
----------------
                 SPIN UP ORBITALS
  NO   OCC          E(Eh)            E(eV)
   0   1.0000     -24.735250      -673.0804
   1   1.0000     -24.731243      -672.9713
   2   1.0000     -24.730096      -672.9401
   3   1.0000     -24.729578      -672.9260
   4   1.0000     -24.729490      -672.9236
   5   1.0000     -24.729465      -672.9230
   6   1.0000     -24.728227      -672.8893
   7   1.0000     -24.728205      -672.8887
   8   1.0000     -24.721196      -672.6979
   9   1.0000     -24.721160      -672.6970
  10   1.0000     -24.709191      -672.3713
  11   1.0000     -24.701606      -672.1649
  12   1.0000     -24.689084      -671.8241
  13   1.0000     -24.688961      -671.8208
  14   1.0000     -19.072325      -518.9843
  15   1.0000     -19.060873      -518.6727
  16   1.0000     -19.057510      -518.5812
  17   1.0000     -10.438598      -284.0487
  18   1.0000     -10.383089      -282.5382
  19   1.0000     -10.380965      -282.4804
  20   1.0000     -10.380791      -282.4757
  21   1.0000     -10.359932      -281.9081
  22   1.0000     -10.325305      -280.9658
  23   1.0000     -10.299550      -280.2650
  24   1.0000     -10.243301      -278.7344
  25   1.0000      -1.360313       -37.0160
  26   1.0000      -1.330702       -36.2103
  27   1.0000      -1.314040       -35.7568
  28   1.0000      -1.308492       -35.6059
  29   1.0000      -1.298508       -35.3342
  30   1.0000      -1.289355       -35.0851
  31   1.0000      -1.271607       -34.6022
  32   1.0000      -1.271200       -34.5911
  33   1.0000      -1.265553       -34.4375
  34   1.0000      -1.262097       -34.3434
  35   1.0000      -1.254588       -34.1391
  36   1.0000      -1.248883       -33.9838
  37   1.0000      -1.234125       -33.5822
  38   1.0000      -1.213606       -33.0239
  39   1.0000      -1.039786       -28.2940
  40   1.0000      -0.973886       -26.5008
  41   1.0000      -0.953614       -25.9492
  42   1.0000      -0.849469       -23.1152
  43   1.0000      -0.827213       -22.5096
  44   1.0000      -0.789003       -21.4699
  45   1.0000      -0.751679       -20.4542
  46   1.0000      -0.707356       -19.2481
  47   1.0000      -0.682475       -18.5711
  48   1.0000      -0.653959       -17.7951
  49   1.0000      -0.636641       -17.3239
  50   1.0000      -0.633903       -17.2494
  51   1.0000      -0.626727       -17.0541
  52   1.0000      -0.613480       -16.6936
  53   1.0000      -0.607920       -16.5424
  54   1.0000      -0.606229       -16.4963
  55   1.0000      -0.597596       -16.2614
  56   1.0000      -0.592588       -16.1251
  57   1.0000      -0.582448       -15.8492
  58   1.0000      -0.579800       -15.7772
  59   1.0000      -0.569101       -15.4860
  60   1.0000      -0.568777       -15.4772
  61   1.0000      -0.552343       -15.0300
  62   1.0000      -0.542190       -14.7537
  63   1.0000      -0.514471       -13.9995
  64   1.0000      -0.499509       -13.5923
  65   1.0000      -0.494577       -13.4581
  66   1.0000      -0.492426       -13.3996
  67   1.0000      -0.489171       -13.3110
  68   1.0000      -0.485007       -13.1977
  69   1.0000      -0.481337       -13.0978
  70   1.0000      -0.474952       -12.9241
  71   1.0000      -0.471053       -12.8180
  72   1.0000      -0.466262       -12.6876
  73   1.0000      -0.458966       -12.4891
  74   1.0000      -0.457453       -12.4479
  75   1.0000      -0.453019       -12.3273
  76   1.0000      -0.449442       -12.2299
  77   1.0000      -0.448044       -12.1919
  78   1.0000      -0.447172       -12.1682
  79   1.0000      -0.438484       -11.9318
  80   1.0000      -0.437021       -11.8920
  81   1.0000      -0.433570       -11.7980
  82   1.0000      -0.430364       -11.7108
  83   1.0000      -0.427851       -11.6424
  84   1.0000      -0.425926       -11.5900
  85   1.0000      -0.425149       -11.5689
  86   1.0000      -0.418186       -11.3794
  87   1.0000      -0.414567       -11.2809
  88   1.0000      -0.403735       -10.9862
  89   1.0000      -0.402261       -10.9461
  90   1.0000      -0.397871       -10.8266
  91   1.0000      -0.392388       -10.6774
  92   1.0000      -0.384692       -10.4680
  93   1.0000      -0.357319        -9.7232
  94   1.0000      -0.343079        -9.3357
  95   1.0000      -0.337827        -9.1927
  96   1.0000      -0.269147        -7.3239
  97   1.0000      -0.260097        -7.0776
  98   1.0000      -0.251695        -6.8490
  99   1.0000      -0.237087        -6.4515
 100   1.0000      -0.230649        -6.2763
 101   0.0000      -0.007009        -0.1907
 102   0.0000       0.016447         0.4476
 103   0.0000       0.018696         0.5087
 104   0.0000       0.047505         1.2927
 105   0.0000       0.071811         1.9541

                 SPIN DOWN ORBITALS
  NO   OCC          E(Eh)            E(eV)
   0   1.0000     -24.731248      -672.9715
   1   1.0000     -24.730223      -672.9436
   2   1.0000     -24.730094      -672.9401
   3   1.0000     -24.729587      -672.9263
   4   1.0000     -24.729445      -672.9224
   5   1.0000     -24.729438      -672.9222
   6   1.0000     -24.728218      -672.8890
   7   1.0000     -24.728187      -672.8882
   8   1.0000     -24.720667      -672.6835
   9   1.0000     -24.720547      -672.6803
  10   1.0000     -24.709034      -672.3670
  11   1.0000     -24.700042      -672.1223
  12   1.0000     -24.689019      -671.8224
  13   1.0000     -24.688816      -671.8168
  14   1.0000     -19.072323      -518.9843
  15   1.0000     -19.060838      -518.6718
  16   1.0000     -19.057324      -518.5762
  17   1.0000     -10.438530      -284.0468
  18   1.0000     -10.382932      -282.5340
  19   1.0000     -10.382062      -282.5103
  20   1.0000     -10.380008      -282.4544
  21   1.0000     -10.360947      -281.9357
  22   1.0000     -10.324826      -280.9528
  23   1.0000     -10.282656      -279.8053
  24   1.0000     -10.243274      -278.7337
  25   1.0000      -1.360258       -37.0145
  26   1.0000      -1.330185       -36.1962
  27   1.0000      -1.313520       -35.7427
  28   1.0000      -1.306968       -35.5644
  29   1.0000      -1.296344       -35.2753
  30   1.0000      -1.282657       -34.9029
  31   1.0000      -1.271166       -34.5902
  32   1.0000      -1.271059       -34.5873
  33   1.0000      -1.265493       -34.4358
  34   1.0000      -1.261862       -34.3370
  35   1.0000      -1.254480       -34.1361
  36   1.0000      -1.247716       -33.9521
  37   1.0000      -1.232186       -33.5295
  38   1.0000      -1.213293       -33.0154
  39   1.0000      -1.039616       -28.2894
  40   1.0000      -0.973871       -26.5004
  41   1.0000      -0.953413       -25.9437
  42   1.0000      -0.840368       -22.8676
  43   1.0000      -0.816619       -22.2213
  44   1.0000      -0.787330       -21.4243
  45   1.0000      -0.744670       -20.2635
  46   1.0000      -0.703197       -19.1350
  47   1.0000      -0.681522       -18.5452
  48   1.0000      -0.649312       -17.6687
  49   1.0000      -0.635054       -17.2807
  50   1.0000      -0.632262       -17.2047
  51   1.0000      -0.626539       -17.0490
  52   1.0000      -0.612013       -16.6537
  53   1.0000      -0.606707       -16.5093
  54   1.0000      -0.602578       -16.3970
  55   1.0000      -0.596277       -16.2255
  56   1.0000      -0.591327       -16.0908
  57   1.0000      -0.579288       -15.7632
  58   1.0000      -0.578584       -15.7441
  59   1.0000      -0.568628       -15.4731
  60   1.0000      -0.566846       -15.4247
  61   1.0000      -0.550298       -14.9744
  62   1.0000      -0.540599       -14.7105
  63   1.0000      -0.499406       -13.5895
  64   1.0000      -0.495073       -13.4716
  65   1.0000      -0.493236       -13.4216
  66   1.0000      -0.489670       -13.3246
  67   1.0000      -0.485355       -13.2072
  68   1.0000      -0.483445       -13.1552
  69   1.0000      -0.480915       -13.0864
  70   1.0000      -0.472417       -12.8551
  71   1.0000      -0.469767       -12.7830
  72   1.0000      -0.464944       -12.6518
  73   1.0000      -0.457645       -12.4531
  74   1.0000      -0.456576       -12.4241
  75   1.0000      -0.452361       -12.3094
  76   1.0000      -0.447916       -12.1884
  77   1.0000      -0.446309       -12.1447
  78   1.0000      -0.445139       -12.1129
  79   1.0000      -0.436951       -11.8900
  80   1.0000      -0.436542       -11.8789
  81   1.0000      -0.433276       -11.7900
  82   1.0000      -0.429117       -11.6769
  83   1.0000      -0.426629       -11.6092
  84   1.0000      -0.425177       -11.5697
  85   1.0000      -0.424674       -11.5560
  86   1.0000      -0.417290       -11.3550
  87   1.0000      -0.413286       -11.2461
  88   1.0000      -0.402041       -10.9401
  89   1.0000      -0.401707       -10.9310
  90   1.0000      -0.397583       -10.8188
  91   1.0000      -0.389969       -10.6116
  92   1.0000      -0.384441       -10.4612
  93   1.0000      -0.353841        -9.6285
  94   1.0000      -0.342938        -9.3318
  95   1.0000      -0.334953        -9.1145
  96   1.0000      -0.269129        -7.3234
  97   1.0000      -0.251525        -6.8443
  98   1.0000      -0.237082        -6.4513
  99   1.0000      -0.232207        -6.3187
 100   0.0000      -0.116991        -3.1835
 101   0.0000      -0.004902        -0.1334
 102   0.0000       0.019011         0.5173
 103   0.0000       0.023732         0.6458
 104   0.0000       0.051334         1.3969

MULLIKEN ATOMIC CHARGES AND SPIN POPULATIONS
--------------------------------------------
   0 C :    0.472929    0.002708
   1 C :    0.333253    0.005235
   2 C :    0.273715    0.032993
   3 C :    0.409063   -0.026610
   4 C :    0.087529    0.845222
   5 C :    0.343604   -0.016818
   6 C :    0.340290    0.011534
   7 C :    0.262106   -0.000365
   8 F :   -0.156753   -0.000062
   9 F :   -0.154844    0.000043
  10 F :   -0.154780    0.000919
  11 F :   -0.164410   -0.000116
  12 F :   -0.162336    0.000240
  13 F :   -0.172608    0.000270
  14 F :   -0.172754    0.000380
  15 F :   -0.169263    0.007134
  16 F :   -0.174906    0.010695
  17 F :   -0.152591    0.088389
  18 F :   -0.192228    0.002012
  19 F :   -0.184225    0.026141
  20 F :   -0.209227    0.002633
  21 F :   -0.207773    0.000671
  22 O :   -0.490042    0.005520
  23 O :   -0.553387    0.001128
  24 O :   -0.747773    0.000004
  25 H :    0.335632    0.000012
  26 H :    0.361777    0.000087
Sum of atomic charges         :   -1.0000000

LOEWDIN ATOMIC CHARGES AND SPIN POPULATIONS
-------------------------------------------
   0 C :   -0.679025    0.001984
   1 C :   -0.478210    0.006619
   2 C :   -0.470274    0.026683
   3 C :   -0.492514    0.064073
   4 C :   -0.167017    0.662149
   5 C :   -0.488492    0.053627
   6 C :   -0.447772    0.013756
   7 C :   -0.671976    0.001820
   8 F :    0.230272   -0.000084
   9 F :    0.232184    0.000055
  10 F :    0.229993    0.000989
  11 F :    0.228748   -0.000117
  12 F :    0.228974    0.000278
  13 F :    0.227759    0.000786
  14 F :    0.229552    0.000766
  15 F :    0.222729    0.008493
  16 F :    0.213175    0.010992
  17 F :    0.257172    0.104917
  18 F :    0.207852    0.003420
  19 F :    0.195834    0.028022
  20 F :    0.171624    0.003107
  21 F :    0.173590    0.001632
  22 O :   -0.025635    0.004970
  23 O :   -0.051624    0.001002
  24 O :   -0.368191    0.000041
  25 H :    0.153678    0.000008
  26 H :    0.137593    0.000011

  Mayer bond orders larger than 0.100000
B(  0-C ,  1-C ) :   0.9497 B(  0-C ,  8-F ) :   1.1298 B(  0-C ,  9-F ) :   1.1416
B(  0-C , 10-F ) :   1.1318 B(  1-C ,  2-C ) :   0.9198 B(  1-C , 11-F ) :   1.0865
B(  1-C , 12-F ) :   1.0952 B(  2-C ,  3-C ) :   0.9242 B(  2-C , 13-F ) :   1.0652
B(  2-C , 14-F ) :   1.0760 B(  3-C ,  4-C ) :   1.0060 B(  3-C , 15-F ) :   1.0918
B(  3-C , 16-F ) :   1.0625 B(  4-C ,  5-C ) :   1.0209 B(  4-C , 17-F ) :   1.1062
B(  5-C ,  6-C ) :   0.9094 B(  5-C , 18-F ) :   1.0492 B(  5-C , 19-F ) :   1.0665
B(  6-C ,  7-C ) :   0.8567 B(  6-C , 20-F ) :   1.0233 B(  6-C , 21-F ) :   1.0348
B(  7-C , 22-O ) :   1.8895 B(  7-C , 23-O ) :   1.6632 B( 23-O , 26-H ) :   0.1060
B( 24-O , 25-H ) :   0.8993 B( 24-O , 26-H ) :   0.8125

Dispersion correction           -0.009088623
FINAL SINGLE POINT ENERGY     -1929.551778661378

DIPOLE MOMENT
-------------

Method             : SCF
Type of density    : Electron Density
Multiplicity       :   2
Irrep              :   0
Energy             : -1929.5426900386576108 Eh
Relativity type    :
Basis              : AO
                                X                 Y                 Z
Electronic contribution:      3.957901200      29.947522110       3.654750790
Nuclear contribution   :     -3.937691384     -22.738992825      -3.846727462
                        -----------------------------------------
Total Dipole Moment    :      0.020209816       7.208529284      -0.191976671
                        -----------------------------------------
Magnitude (a.u.)       :      7.211113501
Magnitude (Debye)      :     18.329193874

VIBRATIONAL FREQUENCIES
-----------------------

Scaling factor for frequencies =  1.000000000  (already applied!)

     0:       0.00 cm**-1
     1:       0.00 cm**-1
     2:       0.00 cm**-1
     3:       0.00 cm**-1
     4:       0.00 cm**-1
     5:       0.00 cm**-1
     6:      16.08 cm**-1
     7:      23.26 cm**-1
     8:      27.76 cm**-1
     9:      36.50 cm**-1
    10:      38.89 cm**-1
    11:      52.64 cm**-1
    12:      54.71 cm**-1
    13:      59.71 cm**-1
    14:      69.68 cm**-1
    15:      87.19 cm**-1
    16:      89.50 cm**-1
    17:     109.09 cm**-1
    18:     123.32 cm**-1
    19:     168.10 cm**-1
    20:     171.76 cm**-1
    21:     187.01 cm**-1
    22:     190.57 cm**-1
    23:     203.33 cm**-1
    24:     217.37 cm**-1
    25:     229.93 cm**-1
    26:     241.94 cm**-1
    27:     243.07 cm**-1
    28:     264.64 cm**-1
    29:     280.85 cm**-1
    30:     288.54 cm**-1
    31:     314.18 cm**-1
    32:     330.10 cm**-1
    33:     346.86 cm**-1
    34:     360.34 cm**-1
    35:     366.11 cm**-1
    36:     374.02 cm**-1
    37:     378.77 cm**-1
    38:     394.74 cm**-1
    39:     404.84 cm**-1
    40:     441.02 cm**-1
    41:     457.34 cm**-1
    42:     515.61 cm**-1
    43:     532.43 cm**-1
    44:     555.10 cm**-1
    45:     560.29 cm**-1
    46:     578.64 cm**-1
    47:     591.81 cm**-1
    48:     607.19 cm**-1
    49:     633.67 cm**-1
    50:     658.73 cm**-1
    51:     697.91 cm**-1
    52:     707.23 cm**-1
    53:     726.21 cm**-1
    54:     737.97 cm**-1
    55:     787.69 cm**-1
    56:     812.34 cm**-1
    57:     880.85 cm**-1
    58:    1009.11 cm**-1
    59:    1065.32 cm**-1
    60:    1111.38 cm**-1
    61:    1117.47 cm**-1
    62:    1126.51 cm**-1
    63:    1141.89 cm**-1
    64:    1154.49 cm**-1
    65:    1163.68 cm**-1
    66:    1169.57 cm**-1
    67:    1180.90 cm**-1
    68:    1191.24 cm**-1
    69:    1209.29 cm**-1
    70:    1213.61 cm**-1
    71:    1236.10 cm**-1
    72:    1285.30 cm**-1
    73:    1342.66 cm**-1
    74:    1351.13 cm**-1
    75:    1371.84 cm**-1
    76:    1415.03 cm**-1
    77:    1665.39 cm**-1
    78:    1749.93 cm**-1
    79:    3478.34 cm**-1
    80:    3856.13 cm**-1

IR SPECTRUM
-----------

 Mode   freq       eps      Int      T**2         TX        TY        TZ
       cm**-1   L/(mol*cm) km/mol    a.u.
----------------------------------------------------------------------------
  6:     16.08   0.000088    0.45  0.001711  (-0.027116 -0.029002 -0.011614)
  7:     23.26   0.000646    3.27  0.008673  ( 0.057547  0.071495 -0.015813)
  8:     27.76   0.000323    1.63  0.003630  (-0.042389 -0.017314  0.039157)
  9:     36.50   0.001312    6.63  0.011212  ( 0.046075  0.087260 -0.038401)
 10:     38.89   0.000634    3.21  0.005092  (-0.023174 -0.020775 -0.064212)
 11:     52.64   0.000567    2.86  0.003358  ( 0.006144  0.040239 -0.041247)
 12:     54.71   0.000282    1.42  0.001608  ( 0.003983  0.022641 -0.032862)
 13:     59.71   0.000198    1.00  0.001033  (-0.000072  0.020913 -0.024416)
 14:     69.68   0.009254   46.76  0.041440  ( 0.043848  0.080563 -0.181734)
 15:     87.19   0.005362   27.10  0.019189  ( 0.049862  0.082512 -0.099474)
 16:     89.50   0.015057   76.09  0.052502  ( 0.051710  0.163600 -0.151867)
 17:    109.09   0.001134    5.73  0.003244  (-0.036127 -0.014216  0.041676)
 18:    123.32   0.000488    2.47  0.001235  (-0.018211  0.021126  0.021377)
 19:    168.10   0.000028    0.14  0.000052  ( 0.002686 -0.002057  0.006332)
 20:    171.76   0.000925    4.68  0.001681  (-0.014188 -0.032077 -0.021241)
 21:    187.01   0.001787    9.03  0.002982  ( 0.023955  0.022404  0.043658)
 22:    190.57   0.002044   10.33  0.003347  ( 0.054045  0.016171  0.012846)
 23:    203.33   0.001771    8.95  0.002718  (-0.030117 -0.033895  0.025736)
 24:    217.37   0.000875    4.42  0.001256  ( 0.019901  0.016817  0.024020)
 25:    229.93   0.000406    2.05  0.000551  (-0.012157 -0.018212 -0.008447)
 26:    241.94   0.000089    0.45  0.000115  ( 0.006093  0.008478 -0.002471)
 27:    243.07   0.000138    0.70  0.000177  (-0.013168  0.001920 -0.000391)
 28:    264.64   0.002136   10.80  0.002519  ( 0.024184  0.040121  0.018022)
 29:    280.85   0.000454    2.29  0.000504  ( 0.008783 -0.018739  0.008717)
 30:    288.54   0.001051    5.31  0.001137  (-0.005310 -0.031242 -0.011522)
 31:    314.18   0.000165    0.83  0.000163  ( 0.006328 -0.009916 -0.005011)
 32:    330.10   0.000198    1.00  0.000187  (-0.004034  0.011875  0.005438)
 33:    346.86   0.000152    0.77  0.000137  ( 0.004946  0.001858  0.010437)
 34:    360.34   0.000015    0.08  0.000013  (-0.003163  0.001274  0.001168)
 35:    366.11   0.000224    1.13  0.000191  ( 0.000960 -0.002800  0.013505)
 36:    374.02   0.003070   15.52  0.002562  ( 0.006806  0.043974  0.024121)
 37:    378.77   0.000025    0.13  0.000021  ( 0.002170  0.002936 -0.002715)
 38:    394.74   0.014716   74.37  0.011634  (-0.028471 -0.070017 -0.076945)
 39:    404.84   0.005046   25.50  0.003890  ( 0.025294  0.042600  0.037883)
 40:    441.02   0.000314    1.59  0.000222  (-0.009044  0.002843  0.011496)
 41:    457.34   0.001909    9.65  0.001302  ( 0.014605 -0.016752 -0.028433)
 42:    515.61   0.000247    1.25  0.000149  (-0.010392 -0.001742  0.006186)
 43:    532.43   0.007983   40.34  0.004679  ( 0.011534 -0.066634 -0.010291)
 44:    555.10   0.000845    4.27  0.000475  (-0.005273 -0.018582  0.010106)
 45:    560.29   0.004201   21.23  0.002340  (-0.011251  0.032779  0.033743)
 46:    578.64   0.004005   20.24  0.002160  ( 0.042718 -0.017326  0.005922)
 47:    591.81   0.006689   33.80  0.003527  (-0.034667 -0.047998 -0.004634)
 48:    607.19   0.002186   11.05  0.001124  ( 0.011768 -0.027071 -0.015882)
 49:    633.67   0.008009   40.48  0.003944  ( 0.001674 -0.062204 -0.008499)
 50:    658.73   0.008620   43.56  0.004084  ( 0.018192 -0.061091  0.004521)
 51:    697.91   0.016031   81.01  0.007168  ( 0.001199 -0.083553 -0.013621)
 52:    707.23   0.007504   37.92  0.003311  ( 0.053219  0.012171  0.018186)
 53:    726.21   0.031342  158.39  0.013468  (-0.051759 -0.090002  0.051854)
 54:    737.97   0.014861   75.10  0.006284  (-0.055097 -0.031819 -0.047288)
 55:    787.69   0.006633   33.52  0.002628  ( 0.018391  0.047761  0.002926)
 56:    812.34   0.023859  120.57  0.009165  (-0.019739  0.063141 -0.069203)
 57:    880.85   0.009431   47.66  0.003341  (-0.047760 -0.026684 -0.018660)
 58:   1009.11   0.003927   19.84  0.001214  (-0.019137  0.013007  0.026055)
 59:   1065.32   0.033856  171.10  0.009918  ( 0.041652  0.090309 -0.005192)
 60:   1111.38   0.049536  250.33  0.013909  (-0.101090 -0.043329 -0.042574)
 61:   1117.47   0.034900  176.37  0.009746  ( 0.066528  0.060609  0.040578)
 62:   1126.51   0.028197  142.50  0.007811  (-0.047178  0.020114  0.071977)
 63:   1141.89   0.090500  457.35  0.024732  (-0.142222  0.053188 -0.040944)
 64:   1154.49   0.042399  214.27  0.011461  ( 0.026263  0.015354 -0.102641)
 65:   1163.68   0.001991   10.06  0.000534  (-0.016614 -0.003150 -0.015747)
 66:   1169.57   0.051078  258.13  0.013629  (-0.011025 -0.013777  0.115401)
 67:   1180.90   0.071827  362.98  0.018981  (-0.012889  0.074008 -0.115488)
 68:   1191.24   0.121033  611.65  0.031706  (-0.103890  0.054527  0.133940)
 69:   1209.29   0.075315  380.61  0.019435  (-0.022898 -0.071386  0.117538)
 70:   1213.61   0.012186   61.58  0.003133  (-0.000491 -0.013102 -0.054420)
 71:   1236.10   0.021477  108.54  0.005422  (-0.001817  0.072533 -0.012556)
 72:   1285.30   0.004385   22.16  0.001065  (-0.007556  0.030532 -0.008678)
 73:   1342.66   0.013271   67.07  0.003085  ( 0.028944 -0.041388  0.023105)
 74:   1351.13   0.026410  133.46  0.006100  (-0.030982 -0.044654 -0.056088)
 75:   1371.84   0.072647  367.13  0.016526  (-0.005935  0.122365 -0.038951)
 76:   1415.03   0.010880   54.98  0.002399  ( 0.008645  0.045724  0.015298)
 77:   1665.39   0.026264  132.73  0.004921  (-0.066932  0.016455 -0.013068)
 78:   1749.93   0.185683  938.37  0.033113  (-0.147849 -0.077693 -0.072230)
 79:   3478.34   0.216841  1095.83  0.019454  (-0.097856 -0.064549 -0.075576)
 80:   3856.13   0.016290   82.32  0.001318  ( 0.003864  0.027839  0.022986)

--------------------------
THERMOCHEMISTRY AT 298.15K
--------------------------

Temperature         ...   298.15 K
Pressure            ...     1.00 atm
Total Mass          ...   412.07 AMU
Quasi RRHO          ...     True
Cut-Off Frequency   ...     1.00 cm^-1

Throughout the following assumptions are being made:
  (1) The electronic state is orbitally nondegenerate
      but the spin degeneracy is treated
  (2) There are no thermally accessible electronically excited states
  (3) Hindered rotations indicated by low frequency modes are not
      treated as such but are treated as vibrations and this may
      cause some error
  (4) All equations used are the standard statistical mechanics
      equations for an ideal gas
  (5) All vibrations are strictly harmonic

freq.      16.08  E(vib)   ...       0.57
freq.      23.26  E(vib)   ...       0.56
freq.      27.76  E(vib)   ...       0.55
freq.      36.50  E(vib)   ...       0.54
freq.      38.89  E(vib)   ...       0.54
freq.      52.64  E(vib)   ...       0.52
freq.      54.71  E(vib)   ...       0.52
freq.      59.71  E(vib)   ...       0.51
freq.      69.68  E(vib)   ...       0.50
freq.      87.19  E(vib)   ...       0.48
freq.      89.50  E(vib)   ...       0.47
freq.     109.09  E(vib)   ...       0.45
freq.     123.32  E(vib)   ...       0.43
freq.     168.10  E(vib)   ...       0.38
freq.     171.76  E(vib)   ...       0.38
freq.     187.01  E(vib)   ...       0.36
freq.     190.57  E(vib)   ...       0.36
freq.     203.33  E(vib)   ...       0.35
freq.     217.37  E(vib)   ...       0.34
freq.     229.93  E(vib)   ...       0.32
freq.     241.94  E(vib)   ...       0.31
freq.     243.07  E(vib)   ...       0.31
freq.     264.64  E(vib)   ...       0.29
freq.     280.85  E(vib)   ...       0.28
freq.     288.54  E(vib)   ...       0.27
freq.     314.18  E(vib)   ...       0.25
freq.     330.10  E(vib)   ...       0.24
freq.     346.86  E(vib)   ...       0.23
freq.     360.34  E(vib)   ...       0.22
freq.     366.11  E(vib)   ...       0.22
freq.     374.02  E(vib)   ...       0.21
freq.     378.77  E(vib)   ...       0.21
freq.     394.74  E(vib)   ...       0.20
freq.     404.84  E(vib)   ...       0.19
freq.     441.02  E(vib)   ...       0.17
freq.     457.34  E(vib)   ...       0.16
freq.     515.61  E(vib)   ...       0.13
freq.     532.43  E(vib)   ...       0.13
freq.     555.10  E(vib)   ...       0.12
freq.     560.29  E(vib)   ...       0.11
freq.     578.64  E(vib)   ...       0.11
freq.     591.81  E(vib)   ...       0.10
freq.     607.19  E(vib)   ...       0.10
freq.     633.67  E(vib)   ...       0.09
freq.     658.73  E(vib)   ...       0.08
freq.     697.91  E(vib)   ...       0.07
freq.     707.23  E(vib)   ...       0.07
freq.     726.21  E(vib)   ...       0.06
freq.     737.97  E(vib)   ...       0.06
freq.     787.69  E(vib)   ...       0.05
freq.     812.34  E(vib)   ...       0.05
freq.     880.85  E(vib)   ...       0.04
freq.    1009.11  E(vib)   ...       0.02
freq.    1065.32  E(vib)   ...       0.02
freq.    1111.38  E(vib)   ...       0.01
freq.    1117.47  E(vib)   ...       0.01
freq.    1126.51  E(vib)   ...       0.01
freq.    1141.89  E(vib)   ...       0.01
freq.    1154.49  E(vib)   ...       0.01
freq.    1163.68  E(vib)   ...       0.01
freq.    1169.57  E(vib)   ...       0.01
freq.    1180.90  E(vib)   ...       0.01
freq.    1191.24  E(vib)   ...       0.01
freq.    1209.29  E(vib)   ...       0.01
freq.    1213.61  E(vib)   ...       0.01
freq.    1236.10  E(vib)   ...       0.01
freq.    1285.30  E(vib)   ...       0.01
freq.    1342.66  E(vib)   ...       0.01
freq.    1351.13  E(vib)   ...       0.01
freq.    1371.84  E(vib)   ...       0.01
freq.    1415.03  E(vib)   ...       0.00
freq.    1665.39  E(vib)   ...       0.00
freq.    1749.93  E(vib)   ...       0.00
freq.    3478.34  E(vib)   ...       0.00
freq.    3856.13  E(vib)   ...       0.00

------------
INNER ENERGY
------------

The inner energy is: U= E(el) + E(ZPE) + E(vib) + E(rot) + E(trans)
    E(el)   - is the total energy from the electronic structure calculation
              = E(kin-el) + E(nuc-el) + E(el-el) + E(nuc-nuc)
    E(ZPE)  - the the zero temperature vibrational energy from the frequency calculation
    E(vib)  - the the finite temperature correction to E(ZPE) due to population
              of excited vibrational states
    E(rot)  - is the rotational thermal energy
    E(trans)- is the translational thermal energy

Summary of contributions to the inner energy U:
Electronic energy                ...  -1929.55177866 Eh
Zero point energy                ...      0.11808602 Eh      74.10 kcal/mol
Thermal vibrational correction   ...      0.02310464 Eh      14.50 kcal/mol
Thermal rotational correction    ...      0.00141627 Eh       0.89 kcal/mol
Thermal translational correction ...      0.00141627 Eh       0.89 kcal/mol
-----------------------------------------------------------------------
Total thermal energy                  -1929.40775546 Eh

Summary of corrections to the electronic energy:
(perhaps to be used in another calculation)
Total thermal correction                  0.02593718 Eh      16.28 kcal/mol
Non-thermal (ZPE) correction              0.11808602 Eh      74.10 kcal/mol
-----------------------------------------------------------------------
Total correction                          0.14402320 Eh      90.38 kcal/mol

--------
ENTHALPY
--------

The enthalpy is H = U + kB*T
                kB is Boltzmann's constant
Total thermal energy              ...  -1929.40775546 Eh
Thermal Enthalpy correction       ...      0.00094421 Eh       0.59 kcal/mol
-----------------------------------------------------------------------
Total Enthalpy                    ...  -1929.40681125 Eh

Note: Only C1 symmetry has been detected, increase convergence thresholds
      if your molecule has a higher symmetry. Symmetry factor of 1.0 is
      used for the rotational entropy correction.

Note: Rotational entropy computed according to Herzberg
Infrared and Raman Spectra, Chapter V,1, Van Nostrand Reinhold, 1945
Point Group:  C1, Symmetry Number:   1
Rotational constants in cm-1:     0.016166     0.004021     0.003745

Vibrational entropy computed according to the QRRHO of S. Grimme
Chem.Eur.J. 2012 18 9955 using a reference frequency of 100.0 cm-1

-------
ENTROPY
-------

The entropy contributions are T*S = T*(S(el)+S(vib)+S(rot)+S(trans))
     S(el)   - electronic entropy
     S(vib)  - vibrational entropy
     S(rot)  - rotational entropy

                             ****ORCA TERMINATED NORMALLY****
TOTAL RUN TIME: 0 days 0 hours 21 minutes 4 seconds 482 msec
