                         Program Version 6.0.1  -  RELEASE   -
|  1> !TPSSh def2-TZVP opt d3 TightSCF SlowConv defgrid2
|  2>
|  3> %pal
|  4> nprocs 20
|  5> end
|  6>
|  7> %scf
|  8> MaxIter 1500
|  9> end
| 10>
| 11> %maxcore 8000
| 12>
| 13> !CPCM
| 14> %cpcm smd true
| 15> SMDsolvent "ACETONITRILE"
| 16> end
| 17>
| 18> * xyz -1 1
| 19> 6        6.857280945     27.901753127      3.100719684
| 20> 6        6.154044945     26.704598127      2.411135684
| 21> 6        7.086539945     25.482838127      2.185613684
| 22> 6        6.299616945     24.171731127      1.900070684
| 23> 6        7.185881945     23.070259127      1.248991684
| 24> 6        6.565390945     21.647303127      1.360366684
| 25> 6        7.185681945     20.616666127      0.394672684
| 26> 6        6.843394945     19.121603127      0.784430684
| 27> 9        8.006806945     28.182557127      2.503585684
| 28> 9        7.082780945     27.647576127      4.378925684
| 29> 9        6.067588945     28.966668127      3.018348684
| 30> 9        5.116418945     26.361022127      3.182510684
| 31> 9        5.702795945     27.135986127      1.230360684
| 32> 9        7.887905945     25.777720127      1.156931684
| 33> 9        7.829891945     25.318192127      3.287321684
| 34> 9        5.806494945     23.745652127      3.066652684
| 35> 9        5.287431945     24.474179127      1.076603684
| 36> 9        7.350609945     23.413929127     -0.034316316
| 37> 9        8.377622945     23.098911127      1.865134684
| 38> 9        6.756126945     21.255165127      2.631170684
| 39> 9        5.250981945     21.784657127      1.133608684
| 40> 9        6.706596945     20.903759127     -0.845345316
| 41> 9        8.519170945     20.869305127      0.364163684
| 42> 8        7.813741945     18.363469127      0.789215684
| 43> 8        5.634555945     18.967368127      0.997888684
| 44> 8        2.818390092     18.736599843      1.412612662
| 45> 1        2.716934106     17.791620290      1.243555674
| 46> 1        3.748070901     18.906228277      1.215686974
| 47> *
| 48>
| 49>                          ****END OF INPUT****
 Total Charge           Charge          ....   -1
 Multiplicity           Mult            ....    1
 Number of Electrons    NEL             ....  210
Dispersion correction           -0.032608819
FINAL SINGLE POINT ENERGY     -2030.359870837372
Dispersion correction             ... done (  0.0 sec)
Dispersion correction           -0.032234110
FINAL SINGLE POINT ENERGY     -2030.364043388100
Dispersion correction             ... done (  0.0 sec)
Dispersion correction           -0.032230630
FINAL SINGLE POINT ENERGY     -2030.364538156429
Dispersion correction             ... done (  0.0 sec)
FINAL SINGLE POINT ENERGY     -2030.364672241207
FINAL SINGLE POINT ENERGY     -2030.364772854580
FINAL SINGLE POINT ENERGY     -2030.364907551379
FINAL SINGLE POINT ENERGY     -2030.362862647627
FINAL SINGLE POINT ENERGY     -2030.364058759358
FINAL SINGLE POINT ENERGY     -2030.357160312300
FINAL SINGLE POINT ENERGY     -2030.365098725175
FINAL SINGLE POINT ENERGY     -2030.366642238579
FINAL SINGLE POINT ENERGY     -2030.366644693331
FINAL SINGLE POINT ENERGY     -2030.366650245937
FINAL SINGLE POINT ENERGY     -2030.366657723539
FINAL SINGLE POINT ENERGY     -2030.366667291128
FINAL SINGLE POINT ENERGY     -2030.366675456923
FINAL SINGLE POINT ENERGY     -2030.366679200113
Dispersion correction             ... done (  0.0 sec)
Dispersion correction           -0.032851983
FINAL SINGLE POINT ENERGY     -2030.366680908093
Dispersion correction             ... done (  0.0 sec)
Dispersion correction           -0.032855140
FINAL SINGLE POINT ENERGY     -2030.366681918889
Dispersion correction             ... done (  0.0 sec)
                    ***********************HURRAY********************

CARTESIAN COORDINATES (ANGSTROEM)
---------------------------------
  C      6.897484   27.977234    2.960231
  C      6.129566   26.706462    2.473279
  C      7.052502   25.496374    2.107192
  C      6.293324   24.125172    2.067052
  C      7.063080   23.010724    1.277163
  C      6.580481   21.559390    1.606022
  C      6.996415   20.471725    0.575600
  C      6.887710   19.012743    1.168325
  F      7.882455   28.291566    2.112457
  F      7.414877   27.786462    4.175542
  F      6.040526   29.001575    3.019895
  F      5.279129   26.345586    3.459045
  F      5.412454   27.051699    1.385389
  F      7.602872   25.738540    0.897818
  F      8.043117   25.413391    3.021254
  F      6.098803   23.717114    3.339613
  F      5.088662   24.313780    1.484680
  F      6.895490   23.246796   -0.043530
  F      8.379991   23.111387    1.568715
  F      7.098690   21.217807    2.814590
  F      5.230629   21.580368    1.716990
  F      6.197168   20.606154   -0.526829
  F      8.269425   20.758393    0.170111
  O      7.961795   18.444779    1.390575
  O      5.707348   18.633533    1.346085
  O      3.190536   19.276419    0.431646
  H      2.845115   18.379986    0.328672
  H      4.119111   19.142161    0.733035

 Multiplicity           Mult            ....    1
 Number of Electrons    NEL             ....  210
 Basis Dimension        Dim             ....  818

ORBITAL ENERGIES
----------------

  NO   OCC          E(Eh)            E(eV)
   0   2.0000     -24.660656      -671.0506
   1   2.0000     -24.659534      -671.0200
   2   2.0000     -24.659489      -671.0188
   3   2.0000     -24.659255      -671.0124
   4   2.0000     -24.659138      -671.0093
   5   2.0000     -24.658907      -671.0030
   6   2.0000     -24.658310      -670.9867
   7   2.0000     -24.656674      -670.9422
   8   2.0000     -24.656460      -670.9364
   9   2.0000     -24.651803      -670.8097
  10   2.0000     -24.651147      -670.7918
  11   2.0000     -24.641434      -670.5275
  12   2.0000     -24.641135      -670.5194
  13   2.0000     -24.618183      -669.8948
  14   2.0000     -24.618089      -669.8923
  15   2.0000     -19.012308      -517.3512
  16   2.0000     -19.001204      -517.0490
  17   2.0000     -18.997819      -516.9569
  18   2.0000     -10.395299      -282.8705
  19   2.0000     -10.344018      -281.4750
  20   2.0000     -10.343256      -281.4543
  21   2.0000     -10.340957      -281.3917
  22   2.0000     -10.334449      -281.2147
  23   2.0000     -10.319971      -280.8207
  24   2.0000     -10.285398      -279.8799
  25   2.0000     -10.200478      -277.5691
  26   2.0000      -1.321800       -35.9680
  27   2.0000      -1.299157       -35.3518
  28   2.0000      -1.284580       -34.9552
  29   2.0000      -1.276634       -34.7390
  30   2.0000      -1.273129       -34.6436
  31   2.0000      -1.262666       -34.3589
  32   2.0000      -1.237225       -33.6666
  33   2.0000      -1.236490       -33.6466
  34   2.0000      -1.231187       -33.5023
  35   2.0000      -1.230525       -33.4843
  36   2.0000      -1.224266       -33.3140
  37   2.0000      -1.220891       -33.2221
  38   2.0000      -1.217102       -33.1190
  39   2.0000      -1.206515       -32.8309
  40   2.0000      -1.180348       -32.1189
  41   2.0000      -1.008879       -27.4530
  42   2.0000      -0.947362       -25.7790
  43   2.0000      -0.925983       -25.1973
  44   2.0000      -0.823549       -22.4099
  45   2.0000      -0.802022       -21.8241
  46   2.0000      -0.772759       -21.0278
  47   2.0000      -0.734992       -20.0001
  48   2.0000      -0.692317       -18.8389
  49   2.0000      -0.662471       -18.0268
  50   2.0000      -0.644863       -17.5476
  51   2.0000      -0.622759       -16.9461
  52   2.0000      -0.617987       -16.8163
  53   2.0000      -0.610005       -16.5991
  54   2.0000      -0.601941       -16.3797
  55   2.0000      -0.597671       -16.2635
  56   2.0000      -0.596217       -16.2239
  57   2.0000      -0.583632       -15.8814
  58   2.0000      -0.580529       -15.7970
  59   2.0000      -0.575832       -15.6692
  60   2.0000      -0.568649       -15.4737
  61   2.0000      -0.557186       -15.1618
  62   2.0000      -0.555752       -15.1228
  63   2.0000      -0.550058       -14.9678
  64   2.0000      -0.543138       -14.7795
  65   2.0000      -0.525970       -14.3124
  66   2.0000      -0.486624       -13.2417
  67   2.0000      -0.483102       -13.1459
  68   2.0000      -0.480766       -13.0823
  69   2.0000      -0.477547       -12.9947
  70   2.0000      -0.473767       -12.8919
  71   2.0000      -0.470037       -12.7903
  72   2.0000      -0.466694       -12.6994
  73   2.0000      -0.462747       -12.5920
  74   2.0000      -0.456566       -12.4238
  75   2.0000      -0.452968       -12.3259
  76   2.0000      -0.450576       -12.2608
  77   2.0000      -0.448152       -12.1948
  78   2.0000      -0.441913       -12.0251
  79   2.0000      -0.439807       -11.9678
  80   2.0000      -0.436336       -11.8733
  81   2.0000      -0.433775       -11.8036
  82   2.0000      -0.430082       -11.7031
  83   2.0000      -0.423600       -11.5268
  84   2.0000      -0.422681       -11.5017
  85   2.0000      -0.419867       -11.4252
  86   2.0000      -0.416467       -11.3326
  87   2.0000      -0.415133       -11.2963
  88   2.0000      -0.411683       -11.2025
  89   2.0000      -0.410797       -11.1784
  90   2.0000      -0.407688       -11.0938
  91   2.0000      -0.405996       -11.0477
  92   2.0000      -0.401080       -10.9139
  93   2.0000      -0.393062       -10.6958
  94   2.0000      -0.390146       -10.6164
  95   2.0000      -0.384736       -10.4692
  96   2.0000      -0.377661       -10.2767
  97   2.0000      -0.372826       -10.1451
  98   2.0000      -0.350164        -9.5285
  99   2.0000      -0.331460        -9.0195
 100   2.0000      -0.320464        -8.7203
 101   2.0000      -0.259304        -7.0560
 102   2.0000      -0.242667        -6.6033
 103   2.0000      -0.230733        -6.2786
 104   2.0000      -0.225702        -6.1417
 105   0.0000      -0.021600        -0.5878
 106   0.0000      -0.008176        -0.2225
 107   0.0000       0.010015         0.2725
 108   0.0000       0.036440         0.9916
 109   0.0000       0.041926         1.1409

MULLIKEN ATOMIC CHARGES
-----------------------
   0 C :    0.408724
   1 C :    0.295448
   2 C :    0.271600
   3 C :    0.294455
   4 C :    0.294659
   5 C :    0.270959
   6 C :    0.302395
   7 C :    0.213828
   8 F :   -0.135774
   9 F :   -0.133206
  10 F :   -0.133051
  11 F :   -0.146759
  12 F :   -0.143919
  13 F :   -0.149230
  14 F :   -0.148851
  15 F :   -0.149813
  16 F :   -0.150540
  17 F :   -0.154610
  18 F :   -0.155407
  19 F :   -0.169921
  20 F :   -0.163066
  21 F :   -0.195326
  22 F :   -0.190393
  23 O :   -0.455822
  24 O :   -0.524437
  25 O :   -0.739395
  26 H :    0.330618
  27 H :    0.356836
Sum of atomic charges:   -1.0000000

LOEWDIN ATOMIC CHARGES
----------------------
   0 C :   -0.667944
   1 C :   -0.466464
   2 C :   -0.460548
   3 C :   -0.458867
   4 C :   -0.458241
   5 C :   -0.457461
   6 C :   -0.442630
   7 C :   -0.667220
   8 F :    0.226511
   9 F :    0.228280
  10 F :    0.226550
  11 F :    0.224752
  12 F :    0.226543
  13 F :    0.226398
  14 F :    0.226117
  15 F :    0.225410
  16 F :    0.224099
  17 F :    0.219901
  18 F :    0.219187
  19 F :    0.206824
  20 F :    0.214592
  21 F :    0.164987
  22 F :    0.171242
  23 O :   -0.022853
  24 O :   -0.051010
  25 O :   -0.373148
  26 H :    0.155251
  27 H :    0.139741

  Mayer bond orders larger than 0.100000
B(  0-C ,  1-C ) :   0.9714 B(  0-C ,  8-F ) :   1.1596 B(  0-C ,  9-F ) :   1.1708
B(  0-C , 10-F ) :   1.1623 B(  1-C ,  2-C ) :   0.9444 B(  1-C , 11-F ) :   1.1001
B(  1-C , 12-F ) :   1.1130 B(  2-C ,  3-C ) :   0.9487 B(  2-C , 13-F ) :   1.0969
B(  2-C , 14-F ) :   1.1018 B(  3-C ,  4-C ) :   0.9560 B(  3-C , 15-F ) :   1.0947
B(  3-C , 16-F ) :   1.0931 B(  4-C ,  5-C ) :   0.9437 B(  4-C , 17-F ) :   1.0941
B(  4-C , 18-F ) :   1.0854 B(  5-C ,  6-C ) :   0.9307 B(  5-C , 19-F ) :   1.0735
B(  5-C , 20-F ) :   1.0850 B(  6-C ,  7-C ) :   0.8788 B(  6-C , 21-F ) :   1.0446
B(  6-C , 22-F ) :   1.0620 B(  7-C , 23-O ) :   1.9139 B(  7-C , 24-O ) :   1.6749
B( 24-O , 27-H ) :   0.1114 B( 25-O , 26-H ) :   0.8991 B( 25-O , 27-H ) :   0.8133

Dispersion correction           -0.032859109
FINAL SINGLE POINT ENERGY     -2030.366682664414

DIPOLE MOMENT
-------------

Method             : SCF
Type of density    : Electron Density
Multiplicity       :   1
Irrep              :   0
Energy             : -2030.3338235550181707 Eh
Relativity type    :
Basis              : AO
                                X                 Y                 Z
Electronic contribution:      8.230008610      29.588485242       5.391087251
Nuclear contribution   :     -7.779321140     -21.785954617      -4.168812240
                        -----------------------------------------
Total Dipole Moment    :      0.450687469       7.802530625       1.222275011
                        -----------------------------------------
Magnitude (a.u.)       :      7.910534720
Magnitude (Debye)      :     20.106981331

Rotational constants in cm-1:             0.016764             0.003404             0.003241
Rotational constants in MHz :           502.558159           102.038016            97.156044

                             ****ORCA TERMINATED NORMALLY****
TOTAL RUN TIME: 0 days 0 hours 51 minutes 18 seconds 907 msec
