                         Program Version 5.0.3 -  RELEASE  -
|  1> !B3LYP def2-TZVP opt d3 TightSCF SlowConv defgrid2
|  2>
|  3> %pal
|  4> nprocs 20
|  5> end
|  6>
|  7> %scf
|  8> MaxIter 1500
|  9> end
| 10>
| 11> %maxcore 8000
| 12>
| 13> !CPCM
| 14> %cpcm smd true
| 15> SMDsolvent "ACETONITRILE"
| 16> end
| 17>
| 18> * xyz -1 2
| 19> 6        4.790427000     -0.033865800     -0.529943200
| 20> 8        5.449345000     -1.206924000     -0.894594600
| 21> 8        4.978223000      1.323071000     -0.737377200
| 22> 6        3.506687600     -0.338741600      0.376153800
| 23> 6        2.222300000      0.400524800     -0.110681600
| 24> 6        0.900506800     -0.386389800      0.175703000
| 25> 6       -0.395261200      0.487294000      0.065549000
| 26> 6       -1.705693600     -0.364773800     -0.068373600
| 27> 6       -3.005136200      0.445344800      0.258164000
| 28> 6       -4.319880200     -0.214526000     -0.270540800
| 29> 9        3.211587400     -1.692050400      0.412735200
| 30> 9        3.741061800      0.055285800      1.689948800
| 31> 9        2.125696800      1.616867800      0.483236600
| 32> 9        2.314152400      0.589704000     -1.455769200
| 33> 9        0.794028800     -1.413561400     -0.700839000
| 34> 9        0.958350600     -0.884509000      1.435093400
| 35> 9       -0.498373400      1.260265600      1.173340200
| 36> 9       -0.299075000      1.289512600     -1.020910800
| 37> 9       -1.641790400     -1.418189000      0.779523800
| 38> 9       -1.792381400     -0.831391600     -1.336863600
| 39> 9       -3.119771000      0.573779800      1.598579800
| 40> 9       -4.383115600     -1.504377600      0.089127600
| 41> 9       -5.365669800      0.430528600      0.260394200
| 42> 9       -4.396020400     -0.128550600     -1.602941800
| 43> *
| 44>
| 45>                          ****END OF INPUT****
 Total Charge           Charge          ....   -1
 Multiplicity           Mult            ....    2
 Number of Electrons    NEL             ....  191
Dispersion correction           -0.041750394
FINAL SINGLE POINT ENERGY     -1853.220041611475
Dispersion correction            ... done
Dispersion correction           -0.041911509
FINAL SINGLE POINT ENERGY     -1853.265350577052
Dispersion correction            ... done
Dispersion correction           -0.041965092
FINAL SINGLE POINT ENERGY     -1853.273815607446
Dispersion correction            ... done
FINAL SINGLE POINT ENERGY     -1853.278672075052
FINAL SINGLE POINT ENERGY     -1853.280010886059
FINAL SINGLE POINT ENERGY     -1853.281129744760
FINAL SINGLE POINT ENERGY     -1853.282119075973
FINAL SINGLE POINT ENERGY     -1853.282617008812
FINAL SINGLE POINT ENERGY     -1853.282882819290
FINAL SINGLE POINT ENERGY     -1853.282937066442
FINAL SINGLE POINT ENERGY     -1853.282922042386
FINAL SINGLE POINT ENERGY     -1853.283012975394
FINAL SINGLE POINT ENERGY     -1853.283066639379
Dispersion correction            ... done
Dispersion correction           -0.041998235
FINAL SINGLE POINT ENERGY     -1853.283081767335
Dispersion correction            ... done
Dispersion correction           -0.041993136
FINAL SINGLE POINT ENERGY     -1853.283093899193
Dispersion correction            ... done
                    ***********************HURRAY********************

CARTESIAN COORDINATES (ANGSTROEM)
---------------------------------
  C      4.697788    0.326697   -0.628200
  O      5.287207   -0.503096   -1.331911
  O      4.856071    1.548850   -0.480136
  C      3.516523   -0.253702    0.253267
  C      2.122990    0.263390   -0.206407
  C      0.901757   -0.564902    0.319881
  C     -0.472667    0.177826    0.195150
  C     -1.732873   -0.749526    0.306521
  C     -3.008018    0.011202    0.508100
  C     -4.104226    0.180546   -0.502232
  F      3.475715   -1.618497    0.221586
  F      3.686800    0.095648    1.565588
  F      1.959184    1.546476    0.189463
  F      2.086134    0.231802   -1.562486
  F      0.827710   -1.722047   -0.373395
  F      1.097173   -0.858206    1.623674
  F     -0.559022    1.100900    1.177518
  F     -0.538903    0.810791   -0.995212
  F     -1.541986   -1.588183    1.359326
  F     -1.831791   -1.482621   -0.826620
  F     -3.275372    0.393619    1.740341
  F     -4.800204   -0.958247   -0.708947
  F     -4.970577    1.109880   -0.083048
  F     -3.609214    0.555727   -1.693107

 Multiplicity           Mult            ....    2
 Number of Electrons    NEL             ....  191
 Basis Dimension        Dim             ....  744

ORBITAL ENERGIES
----------------
                 SPIN UP ORBITALS
  NO   OCC          E(Eh)            E(eV)
   0   1.0000     -24.755930      -673.6431
   1   1.0000     -24.737874      -673.1518
   2   1.0000     -24.737078      -673.1301
   3   1.0000     -24.737061      -673.1297
   4   1.0000     -24.737050      -673.1293
   5   1.0000     -24.735502      -673.0872
   6   1.0000     -24.734002      -673.0464
   7   1.0000     -24.732644      -673.0095
   8   1.0000     -24.732254      -672.9988
   9   1.0000     -24.731386      -672.9752
  10   1.0000     -24.722433      -672.7316
  11   1.0000     -24.722292      -672.7278
  12   1.0000     -24.697648      -672.0572
  13   1.0000     -24.697460      -672.0520
  14   1.0000     -19.061039      -518.6772
  15   1.0000     -19.059251      -518.6286
  16   1.0000     -10.457088      -284.5518
  17   1.0000     -10.403443      -283.0921
  18   1.0000     -10.398680      -282.9625
  19   1.0000     -10.395340      -282.8716
  20   1.0000     -10.380663      -282.4722
  21   1.0000     -10.342875      -281.4439
  22   1.0000     -10.325987      -280.9844
  23   1.0000     -10.253843      -279.0213
  24   1.0000      -1.339774       -36.4571
  25   1.0000      -1.323213       -36.0065
  26   1.0000      -1.306471       -35.5509
  27   1.0000      -1.299316       -35.3562
  28   1.0000      -1.293929       -35.2096
  29   1.0000      -1.289850       -35.0986
  30   1.0000      -1.261924       -34.3387
  31   1.0000      -1.255847       -34.1733
  32   1.0000      -1.252367       -34.0786
  33   1.0000      -1.246438       -33.9173
  34   1.0000      -1.245484       -33.8913
  35   1.0000      -1.242292       -33.8045
  36   1.0000      -1.232452       -33.5367
  37   1.0000      -1.204195       -32.7678
  38   1.0000      -1.024278       -27.8720
  39   1.0000      -0.941755       -25.6265
  40   1.0000      -0.852017       -23.1845
  41   1.0000      -0.825573       -22.4650
  42   1.0000      -0.791834       -21.5469
  43   1.0000      -0.755184       -20.5496
  44   1.0000      -0.713412       -19.4129
  45   1.0000      -0.678299       -18.4574
  46   1.0000      -0.668448       -18.1894
  47   1.0000      -0.638989       -17.3878
  48   1.0000      -0.633948       -17.2506
  49   1.0000      -0.632919       -17.2226
  50   1.0000      -0.622798       -16.9472
  51   1.0000      -0.619265       -16.8511
  52   1.0000      -0.617473       -16.8023
  53   1.0000      -0.603147       -16.4125
  54   1.0000      -0.599804       -16.3215
  55   1.0000      -0.594840       -16.1864
  56   1.0000      -0.583450       -15.8765
  57   1.0000      -0.579462       -15.7680
  58   1.0000      -0.573926       -15.6173
  59   1.0000      -0.563997       -15.3471
  60   1.0000      -0.549542       -14.9538
  61   1.0000      -0.534819       -14.5532
  62   1.0000      -0.504561       -13.7298
  63   1.0000      -0.502492       -13.6735
  64   1.0000      -0.499328       -13.5874
  65   1.0000      -0.494369       -13.4525
  66   1.0000      -0.490709       -13.3529
  67   1.0000      -0.487808       -13.2739
  68   1.0000      -0.483531       -13.1575
  69   1.0000      -0.481026       -13.0894
  70   1.0000      -0.473833       -12.8937
  71   1.0000      -0.469051       -12.7635
  72   1.0000      -0.465200       -12.6587
  73   1.0000      -0.463117       -12.6021
  74   1.0000      -0.458549       -12.4778
  75   1.0000      -0.454553       -12.3690
  76   1.0000      -0.454130       -12.3575
  77   1.0000      -0.450206       -12.2507
  78   1.0000      -0.445621       -12.1260
  79   1.0000      -0.441321       -12.0090
  80   1.0000      -0.437937       -11.9169
  81   1.0000      -0.434572       -11.8253
  82   1.0000      -0.433855       -11.8058
  83   1.0000      -0.431844       -11.7511
  84   1.0000      -0.425165       -11.5693
  85   1.0000      -0.417053       -11.3486
  86   1.0000      -0.411434       -11.1957
  87   1.0000      -0.406461       -11.0604
  88   1.0000      -0.399129       -10.8609
  89   1.0000      -0.384687       -10.4679
  90   1.0000      -0.380822       -10.3627
  91   1.0000      -0.344821        -9.3831
  92   1.0000      -0.273021        -7.4293
  93   1.0000      -0.250141        -6.8067
  94   1.0000      -0.238254        -6.4832
  95   1.0000      -0.236463        -6.4345
  96   0.0000       0.004390         0.1195
  97   0.0000       0.011883         0.3234
  98   0.0000       0.029249         0.7959
  99   0.0000       0.054865         1.4930
 100   0.0000       0.073151         1.9905

                 SPIN DOWN ORBITALS
  NO   OCC          E(Eh)            E(eV)
   0   1.0000     -24.751264      -673.5161
   1   1.0000     -24.737841      -673.1509
   2   1.0000     -24.737005      -673.1281
   3   1.0000     -24.736885      -673.1249
   4   1.0000     -24.736764      -673.1216
   5   1.0000     -24.734867      -673.0699
   6   1.0000     -24.733151      -673.0232
   7   1.0000     -24.732646      -673.0095
   8   1.0000     -24.732246      -672.9986
   9   1.0000     -24.730014      -672.9379
  10   1.0000     -24.722435      -672.7317
  11   1.0000     -24.722290      -672.7277
  12   1.0000     -24.697646      -672.0571
  13   1.0000     -24.697460      -672.0521
  14   1.0000     -19.061027      -518.6769
  15   1.0000     -19.059249      -518.6285
  16   1.0000     -10.457781      -284.5707
  17   1.0000     -10.404277      -283.1148
  18   1.0000     -10.398075      -282.9460
  19   1.0000     -10.395249      -282.8691
  20   1.0000     -10.380626      -282.4712
  21   1.0000     -10.342860      -281.4435
  22   1.0000     -10.311483      -280.5897
  23   1.0000     -10.253841      -279.0212
  24   1.0000      -1.338103       -36.4116
  25   1.0000      -1.322689       -35.9922
  26   1.0000      -1.305096       -35.5135
  27   1.0000      -1.298325       -35.3292
  28   1.0000      -1.289978       -35.1021
  29   1.0000      -1.285515       -34.9806
  30   1.0000      -1.261915       -34.3385
  31   1.0000      -1.255385       -34.1608
  32   1.0000      -1.251428       -34.0531
  33   1.0000      -1.244760       -33.8716
  34   1.0000      -1.243921       -33.8488
  35   1.0000      -1.241822       -33.7917
  36   1.0000      -1.232448       -33.5366
  37   1.0000      -1.204193       -32.7677
  38   1.0000      -1.024263       -27.8716
  39   1.0000      -0.941738       -25.6260
  40   1.0000      -0.840920       -22.8826
  41   1.0000      -0.818779       -22.2801
  42   1.0000      -0.787314       -21.4239
  43   1.0000      -0.753579       -20.5059
  44   1.0000      -0.710365       -19.3300
  45   1.0000      -0.673561       -18.3285
  46   1.0000      -0.668065       -18.1790
  47   1.0000      -0.637120       -17.3369
  48   1.0000      -0.630507       -17.1570
  49   1.0000      -0.629974       -17.1425
  50   1.0000      -0.622221       -16.9315
  51   1.0000      -0.616535       -16.7768
  52   1.0000      -0.615327       -16.7439
  53   1.0000      -0.602234       -16.3876
  54   1.0000      -0.598955       -16.2984
  55   1.0000      -0.592968       -16.1355
  56   1.0000      -0.582760       -15.8577
  57   1.0000      -0.577929       -15.7262
  58   1.0000      -0.573544       -15.6069
  59   1.0000      -0.563519       -15.3341
  60   1.0000      -0.549532       -14.9535
  61   1.0000      -0.506079       -13.7711
  62   1.0000      -0.502602       -13.6765
  63   1.0000      -0.501218       -13.6388
  64   1.0000      -0.497606       -13.5405
  65   1.0000      -0.492496       -13.4015
  66   1.0000      -0.489938       -13.3319
  67   1.0000      -0.485672       -13.2158
  68   1.0000      -0.481551       -13.1037
  69   1.0000      -0.479676       -13.0527
  70   1.0000      -0.472404       -12.8548
  71   1.0000      -0.468845       -12.7579
  72   1.0000      -0.464857       -12.6494
  73   1.0000      -0.458623       -12.4798
  74   1.0000      -0.458219       -12.4688
  75   1.0000      -0.454153       -12.3581
  76   1.0000      -0.451705       -12.2915
  77   1.0000      -0.449248       -12.2247
  78   1.0000      -0.444976       -12.1084
  79   1.0000      -0.440782       -11.9943
  80   1.0000      -0.437308       -11.8998
  81   1.0000      -0.433587       -11.7985
  82   1.0000      -0.433056       -11.7841
  83   1.0000      -0.431589       -11.7441
  84   1.0000      -0.423481       -11.5235
  85   1.0000      -0.415587       -11.3087
  86   1.0000      -0.411430       -11.1956
  87   1.0000      -0.404820       -11.0157
  88   1.0000      -0.399100       -10.8601
  89   1.0000      -0.384670       -10.4674
  90   1.0000      -0.378792       -10.3074
  91   1.0000      -0.343354        -9.3431
  92   1.0000      -0.250133        -6.8065
  93   1.0000      -0.238334        -6.4854
  94   1.0000      -0.236466        -6.4346
  95   0.0000      -0.126906        -3.4533
  96   0.0000       0.006610         0.1799
  97   0.0000       0.015591         0.4243
  98   0.0000       0.033013         0.8983
  99   0.0000       0.057819         1.5733

MULLIKEN ATOMIC CHARGES AND SPIN POPULATIONS
--------------------------------------------
   0 C :    0.143775    0.000164
   1 O :   -0.472935    0.000412
   2 O :   -0.486648    0.000098
   3 C :    0.342946    0.000453
   4 C :    0.318346    0.001800
   5 C :    0.327950    0.004319
   6 C :    0.318121    0.028370
   7 C :    0.382399   -0.011353
   8 C :    0.133749    0.831657
   9 C :    0.490307   -0.009820
  10 F :   -0.211978   -0.000003
  11 F :   -0.218525    0.000060
  12 F :   -0.184971    0.000011
  13 F :   -0.192098    0.000061
  14 F :   -0.177391   -0.000054
  15 F :   -0.176978    0.000168
  16 F :   -0.175847    0.000657
  17 F :   -0.176060    0.000458
  18 F :   -0.176221    0.016106
  19 F :   -0.173875    0.005474
  20 F :   -0.138630    0.090038
  21 F :   -0.169465    0.025730
  22 F :   -0.160832    0.003769
  23 F :   -0.165142    0.011425
Sum of atomic charges         :   -1.0000000

LOEWDIN ATOMIC CHARGES AND SPIN POPULATIONS
-------------------------------------------
   0 C :   -0.693472    0.000178
   1 O :   -0.050437    0.000373
   2 O :   -0.056943    0.000089
   3 C :   -0.436143    0.000583
   4 C :   -0.452270    0.001470
   5 C :   -0.453314    0.004464
   6 C :   -0.450138    0.021587
   7 C :   -0.475818    0.062554
   8 C :   -0.167691    0.660840
   9 C :   -0.665982    0.058650
  10 F :    0.163582   -0.000011
  11 F :    0.154700    0.000065
  12 F :    0.207644   -0.000039
  13 F :    0.201770    0.000075
  14 F :    0.213777   -0.000041
  15 F :    0.214713    0.000234
  16 F :    0.217979    0.001288
  17 F :    0.219453    0.000979
  18 F :    0.206007    0.017067
  19 F :    0.215753    0.006004
  20 F :    0.266355    0.115360
  21 F :    0.193895    0.029602
  22 F :    0.218203    0.004609
  23 F :    0.208376    0.014021

  Mayer bond orders larger than 0.100000
B(  0-C ,  1-O ) :   1.8975 B(  0-C ,  2-O ) :   1.8733 B(  0-C ,  3-C ) :   0.8453
B(  3-C ,  4-C ) :   0.9223 B(  3-C , 10-F ) :   1.0444 B(  3-C , 11-F ) :   1.0306
B(  4-C ,  5-C ) :   0.9224 B(  4-C , 12-F ) :   1.0665 B(  4-C , 13-F ) :   1.0550
B(  5-C ,  6-C ) :   0.9277 B(  5-C , 14-F ) :   1.0685 B(  5-C , 15-F ) :   1.0770
B(  6-C ,  7-C ) :   0.9327 B(  6-C , 16-F ) :   1.0725 B(  6-C , 17-F ) :   1.0823
B(  7-C ,  8-C ) :   0.9995 B(  7-C , 18-F ) :   1.0702 B(  7-C , 19-F ) :   1.0874
B(  8-C ,  9-C ) :   1.0439 B(  8-C , 20-F ) :   1.1341 B(  9-C , 21-F ) :   1.1315
B(  9-C , 22-F ) :   1.1444 B(  9-C , 23-F ) :   1.1352

Dispersion correction           -0.041991446
FINAL SINGLE POINT ENERGY     -1853.283091894837

DIPOLE MOMENT
-------------
                                X             Y             Z
Electronic contribution:    -17.17223      -1.79497       2.84215
Nuclear contribution   :      8.65669       1.04599      -1.37650
                        -----------------------------------------
Total Dipole Moment    :     -8.51554      -0.74898       1.46564
                        -----------------------------------------
Magnitude (a.u.)       :      8.67315
Magnitude (Debye)      :     22.04539

Rotational constants in cm-1:     0.020966     0.004036     0.003974
Rotational constants in MHz :   628.530617   121.004320   119.147186

                             ****ORCA TERMINATED NORMALLY****
TOTAL RUN TIME: 0 days 0 hours 33 minutes 30 seconds 229 msec
