                         Program Version 5.0.3 -  RELEASE  -
|  1> !TPSSh def2-TZVP opt d3 TightSCF SlowConv defgrid2
|  2>
|  3> %pal
|  4> nprocs 20
|  5> end
|  6>
|  7> %scf
|  8> MaxIter 1500
|  9> end
| 10>
| 11> %maxcore 8000
| 12>
| 13> !CPCM
| 14> %cpcm smd true
| 15> SMDsolvent "ACETONITRILE"
| 16> end
| 17>
| 18> * xyz -1 2
| 19> 6        4.790427000     -0.033865800     -0.529943200
| 20> 8        5.449345000     -1.206924000     -0.894594600
| 21> 8        4.978223000      1.323071000     -0.737377200
| 22> 6        3.506687600     -0.338741600      0.376153800
| 23> 6        2.222300000      0.400524800     -0.110681600
| 24> 6        0.900506800     -0.386389800      0.175703000
| 25> 6       -0.395261200      0.487294000      0.065549000
| 26> 6       -1.705693600     -0.364773800     -0.068373600
| 27> 6       -3.005136200      0.445344800      0.258164000
| 28> 6       -4.319880200     -0.214526000     -0.270540800
| 29> 9        3.211587400     -1.692050400      0.412735200
| 30> 9        3.741061800      0.055285800      1.689948800
| 31> 9        2.125696800      1.616867800      0.483236600
| 32> 9        2.314152400      0.589704000     -1.455769200
| 33> 9        0.794028800     -1.413561400     -0.700839000
| 34> 9        0.958350600     -0.884509000      1.435093400
| 35> 9       -0.498373400      1.260265600      1.173340200
| 36> 9       -0.299075000      1.289512600     -1.020910800
| 37> 9       -1.641790400     -1.418189000      0.779523800
| 38> 9       -2.918792200      1.679227200     -0.295171200
| 39> 9       -3.119771000      0.573779800      1.598579800
| 40> 9       -4.383115600     -1.504377600      0.089127600
| 41> 9       -5.365669800      0.430528600      0.260394200
| 42> 9       -4.396020400     -0.128550600     -1.602941800
| 43> *
| 44>
| 45>                          ****END OF INPUT****
 Total Charge           Charge          ....   -1
 Multiplicity           Mult            ....    2
 Number of Electrons    NEL             ....  191
Dispersion correction           -0.028669471
FINAL SINGLE POINT ENERGY     -1853.894553771652
Dispersion correction            ... done
Dispersion correction           -0.028782136
FINAL SINGLE POINT ENERGY     -1853.937676144189
Dispersion correction            ... done
Dispersion correction           -0.028838947
FINAL SINGLE POINT ENERGY     -1853.945905923326
Dispersion correction            ... done
FINAL SINGLE POINT ENERGY     -1853.950337918606
FINAL SINGLE POINT ENERGY     -1853.951620041625
FINAL SINGLE POINT ENERGY     -1853.952479118659
FINAL SINGLE POINT ENERGY     -1853.953379055395
FINAL SINGLE POINT ENERGY     -1853.953806464150
FINAL SINGLE POINT ENERGY     -1853.953921753739
FINAL SINGLE POINT ENERGY     -1853.953978428128
FINAL SINGLE POINT ENERGY     -1853.954175681024
FINAL SINGLE POINT ENERGY     -1853.954176480172
FINAL SINGLE POINT ENERGY     -1853.954176192263
FINAL SINGLE POINT ENERGY     -1853.954175992764
FINAL SINGLE POINT ENERGY     -1853.954175270396
FINAL SINGLE POINT ENERGY     -1853.954175062600
FINAL SINGLE POINT ENERGY     -1853.954174816214
Dispersion correction            ... done
Dispersion correction           -0.028904770
FINAL SINGLE POINT ENERGY     -1853.954174602397
Dispersion correction            ... done
Dispersion correction           -0.028904919
FINAL SINGLE POINT ENERGY     -1853.954174510293
Dispersion correction            ... done
                    ***********************HURRAY********************

CARTESIAN COORDINATES (ANGSTROEM)
---------------------------------
  C      4.671406   -0.042690   -0.729679
  O      5.135059   -0.980216   -1.397056
  O      4.986232    1.159264   -0.649575
  C      3.455663   -0.421250    0.209815
  C      2.141220    0.314551   -0.174206
  C      0.830334   -0.328831    0.392034
  C     -0.418774    0.611505    0.374060
  C     -1.704118   -0.125501    0.605864
  C     -3.079206    0.459201    0.466562
  C     -3.979656   -0.265138   -0.580311
  F      3.187413   -1.763855    0.194909
  F      3.747694   -0.103724    1.512665
  F      2.199273    1.600346    0.245241
  F      2.039586    0.318365   -1.530819
  F      0.531828   -1.422332   -0.349987
  F      1.037359   -0.717764    1.672373
  F     -0.247505    1.584101    1.320950
  F     -0.474443    1.238530   -0.832376
  F     -1.649914   -1.265665    1.280615
  F     -2.991414    1.757902    0.095428
  F     -3.734041    0.394743    1.660326
  F     -4.143558   -1.550727   -0.246087
  F     -5.180469    0.319287   -0.637891
  F     -3.416179   -0.205154   -1.792451

 Multiplicity           Mult            ....    2
 Number of Electrons    NEL             ....  191
 Basis Dimension        Dim             ....  744

ORBITAL ENERGIES
----------------
                 SPIN UP ORBITALS
  NO   OCC          E(Eh)            E(eV)
   0   1.0000     -24.671457      -671.3445
   1   1.0000     -24.657535      -670.9656
   2   1.0000     -24.657100      -670.9538
   3   1.0000     -24.656885      -670.9479
   4   1.0000     -24.654594      -670.8856
   5   1.0000     -24.649284      -670.7411
   6   1.0000     -24.648270      -670.7135
   7   1.0000     -24.648057      -670.7077
   8   1.0000     -24.647989      -670.7059
   9   1.0000     -24.643572      -670.5857
  10   1.0000     -24.637209      -670.4125
  11   1.0000     -24.637090      -670.4093
  12   1.0000     -24.613639      -669.7712
  13   1.0000     -24.613116      -669.7569
  14   1.0000     -18.988050      -516.6911
  15   1.0000     -18.986260      -516.6424
  16   1.0000     -10.389677      -282.7175
  17   1.0000     -10.339584      -281.3544
  18   1.0000     -10.335879      -281.2536
  19   1.0000     -10.329559      -281.0816
  20   1.0000     -10.315826      -280.7079
  21   1.0000     -10.278364      -279.6885
  22   1.0000     -10.265464      -279.3375
  23   1.0000     -10.189293      -277.2648
  24   1.0000      -1.317134       -35.8410
  25   1.0000      -1.285401       -34.9775
  26   1.0000      -1.275311       -34.7030
  27   1.0000      -1.263739       -34.3881
  28   1.0000      -1.263080       -34.3702
  29   1.0000      -1.257608       -34.2213
  30   1.0000      -1.230697       -33.4890
  31   1.0000      -1.230251       -33.4768
  32   1.0000      -1.228219       -33.4215
  33   1.0000      -1.219431       -33.1824
  34   1.0000      -1.215787       -33.0833
  35   1.0000      -1.207714       -32.8636
  36   1.0000      -1.202252       -32.7149
  37   1.0000      -1.174831       -31.9688
  38   1.0000      -0.996346       -27.1119
  39   1.0000      -0.915165       -24.9029
  40   1.0000      -0.831924       -22.6378
  41   1.0000      -0.798569       -21.7302
  42   1.0000      -0.768475       -20.9113
  43   1.0000      -0.728598       -19.8262
  44   1.0000      -0.688282       -18.7291
  45   1.0000      -0.652632       -17.7590
  46   1.0000      -0.638398       -17.3717
  47   1.0000      -0.612613       -16.6700
  48   1.0000      -0.607313       -16.5258
  49   1.0000      -0.604958       -16.4617
  50   1.0000      -0.596627       -16.2351
  51   1.0000      -0.591407       -16.0930
  52   1.0000      -0.587842       -15.9960
  53   1.0000      -0.573665       -15.6102
  54   1.0000      -0.569630       -15.5004
  55   1.0000      -0.563583       -15.3359
  56   1.0000      -0.553625       -15.0649
  57   1.0000      -0.550424       -14.9778
  58   1.0000      -0.544088       -14.8054
  59   1.0000      -0.536126       -14.5887
  60   1.0000      -0.520812       -14.1720
  61   1.0000      -0.505425       -13.7533
  62   1.0000      -0.477371       -12.9899
  63   1.0000      -0.474294       -12.9062
  64   1.0000      -0.468722       -12.7546
  65   1.0000      -0.466551       -12.6955
  66   1.0000      -0.465544       -12.6681
  67   1.0000      -0.454412       -12.3652
  68   1.0000      -0.448758       -12.2113
  69   1.0000      -0.446149       -12.1403
  70   1.0000      -0.445546       -12.1239
  71   1.0000      -0.441289       -12.0081
  72   1.0000      -0.434669       -11.8279
  73   1.0000      -0.432914       -11.7802
  74   1.0000      -0.430872       -11.7246
  75   1.0000      -0.429509       -11.6875
  76   1.0000      -0.424258       -11.5446
  77   1.0000      -0.422677       -11.5016
  78   1.0000      -0.415949       -11.3185
  79   1.0000      -0.411158       -11.1882
  80   1.0000      -0.409931       -11.1548
  81   1.0000      -0.408377       -11.1125
  82   1.0000      -0.405468       -11.0334
  83   1.0000      -0.401631       -10.9289
  84   1.0000      -0.399190       -10.8625
  85   1.0000      -0.387934       -10.5562
  86   1.0000      -0.382071       -10.3967
  87   1.0000      -0.374636       -10.1944
  88   1.0000      -0.372982       -10.1494
  89   1.0000      -0.362344        -9.8599
  90   1.0000      -0.354977        -9.6594
  91   1.0000      -0.321208        -8.7405
  92   1.0000      -0.259056        -7.0493
  93   1.0000      -0.231769        -6.3068
  94   1.0000      -0.217275        -5.9124
  95   1.0000      -0.215190        -5.8556
  96   0.0000      -0.019075        -0.5191
  97   0.0000       0.008893         0.2420
  98   0.0000       0.029973         0.8156
  99   0.0000       0.039912         1.0861
 100   0.0000       0.059794         1.6271

                 SPIN DOWN ORBITALS
  NO   OCC          E(Eh)            E(eV)
   0   1.0000     -24.667033      -671.2241
   1   1.0000     -24.657488      -670.9644
   2   1.0000     -24.657044      -670.9523
   3   1.0000     -24.656653      -670.9416
   4   1.0000     -24.654474      -670.8824
   5   1.0000     -24.648230      -670.7124
   6   1.0000     -24.648213      -670.7120
   7   1.0000     -24.647914      -670.7038
   8   1.0000     -24.647478      -670.6920
   9   1.0000     -24.641905      -670.5403
  10   1.0000     -24.637204      -670.4124
  11   1.0000     -24.637090      -670.4093
  12   1.0000     -24.613638      -669.7711
  13   1.0000     -24.613115      -669.7569
  14   1.0000     -18.988050      -516.6911
  15   1.0000     -18.986260      -516.6424
  16   1.0000     -10.389115      -282.7022
  17   1.0000     -10.340411      -281.3769
  18   1.0000     -10.336570      -281.2724
  19   1.0000     -10.329547      -281.0813
  20   1.0000     -10.315842      -280.7083
  21   1.0000     -10.278368      -279.6886
  22   1.0000     -10.249601      -278.9058
  23   1.0000     -10.189294      -277.2648
  24   1.0000      -1.316766       -35.8310
  25   1.0000      -1.284043       -34.9406
  26   1.0000      -1.273610       -34.6567
  27   1.0000      -1.262145       -34.3447
  28   1.0000      -1.259224       -34.2652
  29   1.0000      -1.254478       -34.1361
  30   1.0000      -1.230687       -33.4887
  31   1.0000      -1.229943       -33.4684
  32   1.0000      -1.227873       -33.4121
  33   1.0000      -1.218867       -33.1670
  34   1.0000      -1.214418       -33.0460
  35   1.0000      -1.205592       -32.8058
  36   1.0000      -1.202230       -32.7143
  37   1.0000      -1.174829       -31.9687
  38   1.0000      -0.996346       -27.1120
  39   1.0000      -0.915166       -24.9029
  40   1.0000      -0.818262       -22.2660
  41   1.0000      -0.797008       -21.6877
  42   1.0000      -0.765707       -20.8359
  43   1.0000      -0.722472       -19.6595
  44   1.0000      -0.687055       -18.6957
  45   1.0000      -0.649057       -17.6617
  46   1.0000      -0.636838       -17.3293
  47   1.0000      -0.608544       -16.5593
  48   1.0000      -0.606059       -16.4917
  49   1.0000      -0.603080       -16.4106
  50   1.0000      -0.595768       -16.2117
  51   1.0000      -0.590327       -16.0636
  52   1.0000      -0.586400       -15.9568
  53   1.0000      -0.571962       -15.5639
  54   1.0000      -0.567537       -15.4435
  55   1.0000      -0.561401       -15.2765
  56   1.0000      -0.550986       -14.9931
  57   1.0000      -0.549389       -14.9496
  58   1.0000      -0.543012       -14.7761
  59   1.0000      -0.535597       -14.5743
  60   1.0000      -0.520797       -14.1716
  61   1.0000      -0.477247       -12.9866
  62   1.0000      -0.475652       -12.9431
  63   1.0000      -0.473309       -12.8794
  64   1.0000      -0.468370       -12.7450
  65   1.0000      -0.465681       -12.6718
  66   1.0000      -0.464536       -12.6407
  67   1.0000      -0.453708       -12.3460
  68   1.0000      -0.447943       -12.1892
  69   1.0000      -0.445135       -12.1127
  70   1.0000      -0.443687       -12.0733
  71   1.0000      -0.439330       -11.9548
  72   1.0000      -0.432472       -11.7682
  73   1.0000      -0.432138       -11.7591
  74   1.0000      -0.429936       -11.6992
  75   1.0000      -0.427846       -11.6423
  76   1.0000      -0.422864       -11.5067
  77   1.0000      -0.421799       -11.4777
  78   1.0000      -0.415221       -11.2987
  79   1.0000      -0.409721       -11.1491
  80   1.0000      -0.409217       -11.1354
  81   1.0000      -0.407397       -11.0858
  82   1.0000      -0.404878       -11.0173
  83   1.0000      -0.401457       -10.9242
  84   1.0000      -0.398435       -10.8420
  85   1.0000      -0.387464       -10.5434
  86   1.0000      -0.382064       -10.3965
  87   1.0000      -0.374229       -10.1833
  88   1.0000      -0.371598       -10.1117
  89   1.0000      -0.362324        -9.8593
  90   1.0000      -0.353044        -9.6068
  91   1.0000      -0.320288        -8.7155
  92   1.0000      -0.231770        -6.3068
  93   1.0000      -0.217261        -5.9120
  94   1.0000      -0.215186        -5.8555
  95   0.0000      -0.132328        -3.6008
  96   0.0000      -0.014303        -0.3892
  97   0.0000       0.010472         0.2850
  98   0.0000       0.033787         0.9194
  99   0.0000       0.043245         1.1767

MULLIKEN ATOMIC CHARGES AND SPIN POPULATIONS
--------------------------------------------
   0 C :    0.165590   -0.000066
   1 O :   -0.478122   -0.000011
   2 O :   -0.492453   -0.000003
   3 C :    0.300124   -0.000161
   4 C :    0.284985   -0.000092
   5 C :    0.295387   -0.009490
   6 C :    0.330886    0.000889
   7 C :    0.116069    0.858590
   8 C :    0.301785   -0.022803
   9 C :    0.411783    0.018112
  10 F :   -0.195260    0.000008
  11 F :   -0.202426    0.000005
  12 F :   -0.164864    0.000035
  13 F :   -0.174667   -0.000004
  14 F :   -0.160585    0.001096
  15 F :   -0.159483    0.001223
  16 F :   -0.164382    0.031537
  17 F :   -0.160919    0.009296
  18 F :   -0.129016    0.084198
  19 F :   -0.151541    0.001411
  20 F :   -0.155121    0.020460
  21 F :   -0.141554    0.000746
  22 F :   -0.135425    0.004456
  23 F :   -0.140791    0.000568
Sum of atomic charges         :   -1.0000000

LOEWDIN ATOMIC CHARGES AND SPIN POPULATIONS
-------------------------------------------
   0 C :   -0.691255   -0.000032
   1 O :   -0.047894   -0.000009
   2 O :   -0.054626   -0.000004
   3 C :   -0.438692   -0.000117
   4 C :   -0.456353   -0.000390
   5 C :   -0.450663    0.000269
   6 C :   -0.471357    0.059598
   7 C :   -0.160708    0.670022
   8 C :   -0.482653    0.061457
   9 C :   -0.661257    0.016407
  10 F :    0.163490    0.000022
  11 F :    0.154036    0.000012
  12 F :    0.210413    0.000119
  13 F :    0.201296    0.000008
  14 F :    0.215449    0.001872
  15 F :    0.215716    0.001419
  16 F :    0.192472    0.035764
  17 F :    0.208510    0.013124
  18 F :    0.262266    0.108417
  19 F :    0.221213    0.002384
  20 F :    0.202144    0.021438
  21 F :    0.222095    0.001225
  22 F :    0.223364    0.005217
  23 F :    0.222995    0.001780

  Mayer bond orders larger than 0.100000
B(  0-C ,  1-O ) :   1.8748 B(  0-C ,  2-O ) :   1.8464 B(  0-C ,  3-C ) :   0.8536
B(  3-C ,  4-C ) :   0.9365 B(  3-C , 10-F ) :   1.0525 B(  3-C , 11-F ) :   1.0379
B(  4-C ,  5-C ) :   0.9399 B(  4-C , 12-F ) :   1.0829 B(  4-C , 13-F ) :   1.0694
B(  5-C ,  6-C ) :   0.9506 B(  5-C , 14-F ) :   1.0818 B(  5-C , 15-F ) :   1.0824
B(  6-C ,  7-C ) :   1.0495 B(  6-C , 16-F ) :   1.0681 B(  6-C , 17-F ) :   1.0705
B(  7-C ,  8-C ) :   1.0413 B(  7-C , 18-F ) :   1.1267 B(  8-C ,  9-C ) :   0.9701
B(  8-C , 19-F ) :   1.0984 B(  8-C , 20-F ) :   1.1032 B(  9-C , 21-F ) :   1.1542
B(  9-C , 22-F ) :   1.1612 B(  9-C , 23-F ) :   1.1620

Dispersion correction           -0.028904997
FINAL SINGLE POINT ENERGY     -1853.954174471193

DIPOLE MOMENT
-------------
                                X             Y             Z
Electronic contribution:    -17.44398      -0.32933       3.18587
Nuclear contribution   :      8.97593       0.12066      -1.66772
                        -----------------------------------------
Total Dipole Moment    :     -8.46806      -0.20867       1.51816
                        -----------------------------------------
Magnitude (a.u.)       :      8.60560
Magnitude (Debye)      :     21.87370

Rotational constants in cm-1:     0.020419     0.003975     0.003955
Rotational constants in MHz :   612.140474   119.170443   118.578836

                             ****ORCA TERMINATED NORMALLY****
TOTAL RUN TIME: 0 days 0 hours 48 minutes 18 seconds 977 msec
