                         Program Version 6.0.1  -  RELEASE   -
|  1> !B3LYP def2-TZVP freq d3 TightSCF SlowConv defgrid2
|  2>
|  3> %pal
|  4> nprocs 20
|  5> end
|  6>
|  7> %scf
|  8> MaxIter 1500
|  9> end
| 10>
| 11> %maxcore 8000
| 12>
| 13> !CPCM
| 14> %cpcm smd true
| 15> SMDsolvent "ACETONITRILE"
| 16> end
| 17>
| 18> * xyz 0 1
| 19> 6        4.788223000     -0.032696000     -0.223229000
| 20> 8        5.165957000     -0.808294000     -1.226702000
| 21> 8        5.325435000      0.962347000      0.169113000
| 22> 6        3.482390000     -0.557973000      0.435970000
| 23> 6        2.224404000      0.126072000     -0.189037000
| 24> 6        0.862821000     -0.540707000      0.214541000
| 25> 6       -0.375070000      0.394824000     -0.021252000
| 26> 6       -1.740782000     -0.379295000     -0.031409000
| 27> 6       -2.981170000      0.554331000      0.174914000
| 28> 6       -4.348449000     -0.102338000     -0.205324000
| 29> 9        3.366712000     -1.896918000      0.292501000
| 30> 9        3.528918000     -0.268614000      1.751164000
| 31> 9        2.221025000      1.419803000      0.192543000
| 32> 9        2.342277000      0.075452000     -1.532846000
| 33> 9        0.706204000     -1.663621000     -0.514203000
| 34> 9        0.902962000     -0.874358000      1.518376000
| 35> 9       -0.405166000      1.319976000      0.957438000
| 36> 9       -0.230706000      1.019336000     -1.206294000
| 37> 9       -1.735519000     -1.296913000      0.955536000
| 38> 9       -1.864890000     -1.014650000     -1.212671000
| 39> 9       -2.838619000      1.664400000     -0.576541000
| 40> 9       -3.047149000      0.909814000      1.470651000
| 41> 9       -4.480044000     -1.292543000      0.384800000
| 42> 9       -5.333919000      0.695622000      0.210904000
| 43> 9       -4.454490000     -0.256186000     -1.524314000
| 44> 1        5.973177000     -0.438092000     -1.636807000
| 45> *
| 46>
| 47>                          ****END OF INPUT****

CARTESIAN COORDINATES (ANGSTROEM)
---------------------------------
  C      4.788223   -0.032696   -0.223229
  O      5.165957   -0.808294   -1.226702
  O      5.325435    0.962347    0.169113
  C      3.482390   -0.557973    0.435970
  C      2.224404    0.126072   -0.189037
  C      0.862821   -0.540707    0.214541
  C     -0.375070    0.394824   -0.021252
  C     -1.740782   -0.379295   -0.031409
  C     -2.981170    0.554331    0.174914
  C     -4.348449   -0.102338   -0.205324
  F      3.366712   -1.896918    0.292501
  F      3.528918   -0.268614    1.751164
  F      2.221025    1.419803    0.192543
  F      2.342277    0.075452   -1.532846
  F      0.706204   -1.663621   -0.514203
  F      0.902962   -0.874358    1.518376
  F     -0.405166    1.319976    0.957438
  F     -0.230706    1.019336   -1.206294
  F     -1.735519   -1.296913    0.955536
  F     -1.864890   -1.014650   -1.212671
  F     -2.838619    1.664400   -0.576541
  F     -3.047149    0.909814    1.470651
  F     -4.480044   -1.292543    0.384800
  F     -5.333919    0.695622    0.210904
  F     -4.454490   -0.256186   -1.524314
  H      5.973177   -0.438092   -1.636807

 Total Charge           Charge          ....    0
 Multiplicity           Mult            ....    1
 Number of Electrons    NEL             ....  200
 Basis Dimension        Dim             ....  781

ORBITAL ENERGIES
----------------

  NO   OCC          E(Eh)            E(eV)
   0   2.0000     -24.747134      -673.4037
   1   2.0000     -24.747014      -673.4005
   2   2.0000     -24.746870      -673.3966
   3   2.0000     -24.746841      -673.3958
   4   2.0000     -24.746763      -673.3937
   5   2.0000     -24.746424      -673.3844
   6   2.0000     -24.745840      -673.3685
   7   2.0000     -24.745701      -673.3648
   8   2.0000     -24.745366      -673.3556
   9   2.0000     -24.745036      -673.3467
  10   2.0000     -24.744848      -673.3416
  11   2.0000     -24.744374      -673.3287
  12   2.0000     -24.743751      -673.3117
  13   2.0000     -24.735453      -673.0859
  14   2.0000     -24.733501      -673.0328
  15   2.0000     -19.207868      -522.6727
  16   2.0000     -19.154844      -521.2298
  17   2.0000     -10.463378      -284.7230
  18   2.0000     -10.412650      -283.3426
  19   2.0000     -10.412270      -283.3323
  20   2.0000     -10.411218      -283.3037
  21   2.0000     -10.410097      -283.2731
  22   2.0000     -10.406831      -283.1843
  23   2.0000     -10.397032      -282.9176
  24   2.0000     -10.346887      -281.5531
  25   2.0000      -1.355855       -36.8947
  26   2.0000      -1.338008       -36.4090
  27   2.0000      -1.325753       -36.0756
  28   2.0000      -1.314489       -35.7691
  29   2.0000      -1.311281       -35.6818
  30   2.0000      -1.309326       -35.6286
  31   2.0000      -1.302257       -35.4362
  32   2.0000      -1.270928       -34.5837
  33   2.0000      -1.266361       -34.4594
  34   2.0000      -1.262477       -34.3538
  35   2.0000      -1.260864       -34.3098
  36   2.0000      -1.256021       -34.1781
  37   2.0000      -1.253373       -34.1060
  38   2.0000      -1.252654       -34.0865
  39   2.0000      -1.244812       -33.8731
  40   2.0000      -1.147321       -31.2202
  41   2.0000      -1.063208       -28.9314
  42   2.0000      -0.853857       -23.2346
  43   2.0000      -0.838222       -22.8092
  44   2.0000      -0.814456       -22.1625
  45   2.0000      -0.781572       -21.2677
  46   2.0000      -0.740967       -20.1627
  47   2.0000      -0.705223       -19.1901
  48   2.0000      -0.687940       -18.7198
  49   2.0000      -0.670001       -18.2316
  50   2.0000      -0.655368       -17.8335
  51   2.0000      -0.652434       -17.7536
  52   2.0000      -0.641938       -17.4680
  53   2.0000      -0.637948       -17.3594
  54   2.0000      -0.636441       -17.3184
  55   2.0000      -0.631218       -17.1763
  56   2.0000      -0.621171       -16.9029
  57   2.0000      -0.617313       -16.7979
  58   2.0000      -0.613058       -16.6822
  59   2.0000      -0.607832       -16.5400
  60   2.0000      -0.603312       -16.4170
  61   2.0000      -0.596188       -16.2231
  62   2.0000      -0.589281       -16.0352
  63   2.0000      -0.585516       -15.9327
  64   2.0000      -0.574841       -15.6422
  65   2.0000      -0.522348       -14.2138
  66   2.0000      -0.521392       -14.1878
  67   2.0000      -0.519054       -14.1242
  68   2.0000      -0.513874       -13.9832
  69   2.0000      -0.511166       -13.9095
  70   2.0000      -0.506634       -13.7862
  71   2.0000      -0.504141       -13.7184
  72   2.0000      -0.501207       -13.6385
  73   2.0000      -0.497065       -13.5258
  74   2.0000      -0.492410       -13.3992
  75   2.0000      -0.492096       -13.3906
  76   2.0000      -0.487863       -13.2754
  77   2.0000      -0.484283       -13.1780
  78   2.0000      -0.481982       -13.1154
  79   2.0000      -0.476507       -12.9664
  80   2.0000      -0.473859       -12.8944
  81   2.0000      -0.468827       -12.7574
  82   2.0000      -0.465710       -12.6726
  83   2.0000      -0.462493       -12.5851
  84   2.0000      -0.459102       -12.4928
  85   2.0000      -0.456542       -12.4231
  86   2.0000      -0.455240       -12.3877
  87   2.0000      -0.452339       -12.3088
  88   2.0000      -0.450009       -12.2454
  89   2.0000      -0.448290       -12.1986
  90   2.0000      -0.444632       -12.0990
  91   2.0000      -0.443980       -12.0813
  92   2.0000      -0.442910       -12.0522
  93   2.0000      -0.437399       -11.9022
  94   2.0000      -0.430122       -11.7042
  95   2.0000      -0.412775       -11.2322
  96   2.0000      -0.384817       -10.4714
  97   2.0000      -0.361372        -9.8334
  98   2.0000      -0.353749        -9.6260
  99   2.0000      -0.318504        -8.6669
 100   0.0000      -0.054089        -1.4718
 101   0.0000      -0.009349        -0.2544
 102   0.0000       0.004052         0.1103
 103   0.0000       0.028201         0.7674
 104   0.0000       0.036112         0.9827

MULLIKEN ATOMIC CHARGES
-----------------------
   0 C :    0.227491
   1 O :   -0.347248
   2 O :   -0.284565
   3 C :    0.413105
   4 C :    0.307135
   5 C :    0.328491
   6 C :    0.334438
   7 C :    0.313015
   8 C :    0.324069
   9 C :    0.476301
  10 F :   -0.176464
  11 F :   -0.172055
  12 F :   -0.170260
  13 F :   -0.171563
  14 F :   -0.167582
  15 F :   -0.165754
  16 F :   -0.165931
  17 F :   -0.166408
  18 F :   -0.166623
  19 F :   -0.165681
  20 F :   -0.164922
  21 F :   -0.161426
  22 F :   -0.154621
  23 F :   -0.151946
  24 F :   -0.152026
  25 H :    0.381031
Sum of atomic charges:    0.0000000

LOEWDIN ATOMIC CHARGES
----------------------
   0 C :   -0.489187
   1 O :    0.155258
   2 O :    0.136485
   3 C :   -0.449324
   4 C :   -0.452459
   5 C :   -0.455400
   6 C :   -0.455462
   7 C :   -0.457056
   8 C :   -0.463356
   9 C :   -0.663948
  10 F :    0.209802
  11 F :    0.215506
  12 F :    0.224865
  13 F :    0.222248
  14 F :    0.225208
  15 F :    0.227158
  16 F :    0.227139
  17 F :    0.226699
  18 F :    0.226554
  19 F :    0.226718
  20 F :    0.224143
  21 F :    0.225861
  22 F :    0.225627
  23 F :    0.226143
  24 F :    0.227790
  25 H :    0.232986

  Mayer bond orders larger than 0.100000
B(  0-C ,  1-O ) :   1.3086 B(  0-C ,  2-O ) :   2.0846 B(  0-C ,  3-C ) :   0.8997
B(  1-O , 25-H ) :   0.8216 B(  3-C ,  4-C ) :   0.9435 B(  3-C , 10-F ) :   1.0894
B(  3-C , 11-F ) :   1.1058 B(  4-C ,  5-C ) :   0.9345 B(  4-C , 12-F ) :   1.0812
B(  4-C , 13-F ) :   1.0764 B(  5-C ,  6-C ) :   0.9393 B(  5-C , 14-F ) :   1.0828
B(  5-C , 15-F ) :   1.0848 B(  6-C ,  7-C ) :   0.9328 B(  6-C , 16-F ) :   1.0826
B(  6-C , 17-F ) :   1.0807 B(  7-C ,  8-C ) :   0.9262 B(  7-C , 18-F ) :   1.0821
B(  7-C , 19-F ) :   1.0896 B(  8-C ,  9-C ) :   0.9691 B(  8-C , 20-F ) :   1.0875
B(  8-C , 21-F ) :   1.0985 B(  9-C , 22-F ) :   1.1443 B(  9-C , 23-F ) :   1.1481
B(  9-C , 24-F ) :   1.1564

Dispersion correction           -0.045072099
FINAL SINGLE POINT ENERGY     -1953.644667272259

DIPOLE MOMENT
-------------

Method             : SCF
Type of density    : Electron Density
Multiplicity       :   1
Irrep              :   0
Energy             : -1953.5995951731076730 Eh
Relativity type    :
Basis              : AO
                                X                 Y                 Z
Electronic contribution:    -14.950652054      -0.324258274       1.583806218
Nuclear contribution   :     15.679400225      -0.060886361      -2.461900320
                        -----------------------------------------
Total Dipole Moment    :      0.728748171      -0.385144635      -0.878094101
                        -----------------------------------------
Magnitude (a.u.)       :      1.204350255
Magnitude (Debye)      :      3.061215070

VIBRATIONAL FREQUENCIES
-----------------------

Scaling factor for frequencies =  1.000000000  (already applied!)

     0:       0.00 cm**-1
     1:       0.00 cm**-1
     2:       0.00 cm**-1
     3:       0.00 cm**-1
     4:       0.00 cm**-1
     5:       0.00 cm**-1
     6:      29.05 cm**-1
     7:      30.65 cm**-1
     8:      34.43 cm**-1
     9:      45.85 cm**-1
    10:      54.32 cm**-1
    11:      60.16 cm**-1
    12:      61.92 cm**-1
    13:      72.96 cm**-1
    14:     116.42 cm**-1
    15:     133.60 cm**-1
    16:     159.77 cm**-1
    17:     186.34 cm**-1
    18:     202.42 cm**-1
    19:     204.06 cm**-1
    20:     208.56 cm**-1
    21:     231.44 cm**-1
    22:     242.23 cm**-1
    23:     254.27 cm**-1
    24:     259.29 cm**-1
    25:     264.93 cm**-1
    26:     285.83 cm**-1
    27:     304.35 cm**-1
    28:     308.31 cm**-1
    29:     332.79 cm**-1
    30:     346.94 cm**-1
    31:     357.64 cm**-1
    32:     362.92 cm**-1
    33:     367.33 cm**-1
    34:     374.49 cm**-1
    35:     376.42 cm**-1
    36:     408.30 cm**-1
    37:     462.93 cm**-1
    38:     511.91 cm**-1
    39:     515.52 cm**-1
    40:     528.31 cm**-1
    41:     553.19 cm**-1
    42:     559.66 cm**-1
    43:     579.85 cm**-1
    44:     585.00 cm**-1
    45:     596.43 cm**-1
    46:     614.23 cm**-1
    47:     633.62 cm**-1
    48:     649.11 cm**-1
    49:     679.76 cm**-1
    50:     704.12 cm**-1
    51:     720.76 cm**-1
    52:     751.91 cm**-1
    53:     773.62 cm**-1
    54:     870.81 cm**-1
    55:    1004.41 cm**-1
    56:    1096.10 cm**-1
    57:    1119.62 cm**-1
    58:    1129.63 cm**-1
    59:    1133.11 cm**-1
    60:    1141.39 cm**-1
    61:    1145.62 cm**-1
    62:    1148.66 cm**-1
    63:    1151.51 cm**-1
    64:    1159.58 cm**-1
    65:    1161.97 cm**-1
    66:    1173.78 cm**-1
    67:    1183.23 cm**-1
    68:    1190.33 cm**-1
    69:    1201.60 cm**-1
    70:    1222.38 cm**-1
    71:    1253.27 cm**-1
    72:    1268.19 cm**-1
    73:    1292.08 cm**-1
    74:    1346.83 cm**-1
    75:    1398.29 cm**-1
    76:    1823.35 cm**-1
    77:    3612.25 cm**-1

IR SPECTRUM
-----------

 Mode   freq       eps      Int      T**2         TX        TY        TZ
       cm**-1   L/(mol*cm) km/mol    a.u.
----------------------------------------------------------------------------
  6:     29.05   0.000147    0.74  0.001584  (-0.015351 -0.036698 -0.001103)
  7:     30.65   0.000192    0.97  0.001958  (-0.012194  0.035426 -0.023550)
  8:     34.43   0.000022    0.11  0.000200  (-0.005233 -0.013090  0.001072)
  9:     45.85   0.000154    0.78  0.001046  ( 0.013189 -0.024015  0.017187)
 10:     54.32   0.000198    1.00  0.001135  ( 0.019656 -0.010352  0.025329)
 11:     60.16   0.000248    1.26  0.001288  ( 0.024820 -0.013258  0.022282)
 12:     61.92   0.000078    0.39  0.000394  ( 0.012629  0.008447  0.012754)
 13:     72.96   0.000097    0.49  0.000417  ( 0.017679  0.009593  0.003509)
 14:    116.42   0.000123    0.62  0.000329  (-0.012092  0.013520  0.000479)
 15:    133.60   0.000011    0.06  0.000027  (-0.002105  0.004318  0.001926)
 16:    159.77   0.000116    0.58  0.000226  ( 0.013213  0.001750  0.006931)
 17:    186.34   0.003173   16.03  0.005314  ( 0.003129 -0.005688 -0.072607)
 18:    202.42   0.000166    0.84  0.000256  (-0.014090  0.006977 -0.002931)
 19:    204.06   0.000045    0.23  0.000069  ( 0.007123  0.001103  0.004103)
 20:    208.56   0.000395    2.00  0.000591  (-0.000766  0.023808 -0.004834)
 21:    231.44   0.000131    0.66  0.000177  (-0.003542 -0.003229  0.012417)
 22:    242.23   0.000017    0.08  0.000021  (-0.004291 -0.001160 -0.001310)
 23:    254.27   0.000191    0.97  0.000235  (-0.014177 -0.003165  0.004896)
 24:    259.29   0.000015    0.08  0.000018  ( 0.001280 -0.003762 -0.001458)
 25:    264.93   0.000303    1.53  0.000356  ( 0.015818  0.009146 -0.004742)
 26:    285.83   0.001208    6.11  0.001319  (-0.033664  0.013312  0.002953)
 27:    304.35   0.000047    0.24  0.000048  (-0.001949 -0.000210  0.006675)
 28:    308.31   0.000123    0.62  0.000124  (-0.008948  0.006541 -0.001199)
 29:    332.79   0.000088    0.44  0.000083  ( 0.007559  0.000534  0.005012)
 30:    346.94   0.000328    1.66  0.000295  ( 0.006505  0.007301  0.014129)
 31:    357.64   0.000100    0.51  0.000087  ( 0.002050 -0.002648 -0.008733)
 32:    362.92   0.000021    0.11  0.000018  (-0.002768 -0.002602 -0.001942)
 33:    367.33   0.000129    0.65  0.000110  (-0.010377  0.000991 -0.000923)
 34:    374.49   0.000277    1.40  0.000231  ( 0.014632  0.004065  0.000602)
 35:    376.42   0.000648    3.28  0.000537  (-0.017726 -0.014236 -0.004541)
 36:    408.30   0.000269    1.36  0.000205  (-0.003897  0.013652 -0.001961)
 37:    462.93   0.000636    3.21  0.000429  ( 0.012404 -0.004278 -0.016012)
 38:    511.91   0.010445   52.78  0.006367  ( 0.075934 -0.011801 -0.021497)
 39:    515.52   0.002276   11.50  0.001378  (-0.034813 -0.004600  0.012037)
 40:    528.31   0.003136   15.85  0.001853  ( 0.023210 -0.035945  0.004676)
 41:    553.19   0.010519   53.16  0.005934  (-0.069202 -0.028342  0.018487)
 42:    559.66   0.004756   24.03  0.002652  (-0.002919  0.047278 -0.020203)
 43:    579.85   0.004846   24.49  0.002608  ( 0.038663 -0.005926 -0.032833)
 44:    585.00   0.017736   89.63  0.009461  ( 0.075982 -0.026414  0.054685)
 45:    596.43   0.003168   16.01  0.001658  (-0.038519  0.002055  0.013025)
 46:    614.23   0.005302   26.79  0.002694  (-0.006105 -0.027919  0.043324)
 47:    633.62   0.063519  321.00  0.031284  (-0.165659  0.055596 -0.027381)
 48:    649.11   0.003558   17.98  0.001710  (-0.013012  0.009703  0.038039)
 49:    679.76   0.004502   22.75  0.002067  (-0.034517 -0.025898  0.014300)
 50:    704.12   0.007195   36.36  0.003189  (-0.049161 -0.005493 -0.027235)
 51:    720.76   0.001736    8.77  0.000751  (-0.025889 -0.001034  0.008954)
 52:    751.91   0.001828    9.24  0.000759  ( 0.013188  0.009282 -0.022331)
 53:    773.62   0.007112   35.94  0.002869  (-0.027182 -0.014518  0.043809)
 54:    870.81   0.001942    9.82  0.000696  (-0.021048  0.015882 -0.000880)
 55:   1004.41   0.014670   74.13  0.004558  (-0.066735  0.009104 -0.004619)
 56:   1096.10   0.010265   51.88  0.002923  (-0.026775 -0.046358 -0.007523)
 57:   1119.62   0.008300   41.94  0.002313  ( 0.019276  0.002658  0.043985)
 58:   1129.63   0.052509  265.36  0.014506  (-0.002457 -0.107250 -0.054745)
 59:   1133.11   0.073345  370.66  0.020200  (-0.036994 -0.093144  0.100773)
 60:   1141.39   0.006350   32.09  0.001736  ( 0.006490  0.040812 -0.005342)
 61:   1145.62   0.079065  399.56  0.021537  ( 0.001501 -0.145714 -0.017380)
 62:   1148.66   0.015746   79.58  0.004278  ( 0.010687 -0.063548 -0.011196)
 63:   1151.51   0.070199  354.76  0.019024  ( 0.008313  0.066032  0.120809)
 64:   1159.58   0.182088  920.20  0.049003  (-0.002752 -0.003955  0.221314)
 65:   1161.97   0.106934  540.40  0.028719  (-0.035848  0.154775  0.058976)
 66:   1173.78   0.063053  318.64  0.016763  (-0.007356 -0.025047  0.126814)
 67:   1183.23   0.018079   91.36  0.004768  (-0.034362 -0.014397  0.058138)
 68:   1190.33   0.026573  134.29  0.006966  ( 0.012337 -0.022189  0.079510)
 69:   1201.60   0.011153   56.36  0.002897  (-0.031176  0.037687  0.022458)
 70:   1222.38   0.007044   35.60  0.001798  (-0.034708 -0.000550  0.024361)
 71:   1253.27   0.001776    8.97  0.000442  ( 0.002132 -0.017807 -0.010980)
 72:   1268.19   0.002035   10.28  0.000501  ( 0.014904 -0.012615 -0.010929)
 73:   1292.08   0.011601   58.62  0.002802  (-0.047135  0.018445 -0.015486)
 74:   1346.83   0.016821   85.01  0.003898  (-0.062176 -0.002665  0.004960)
 75:   1398.29   0.015377   77.71  0.003432  ( 0.040716 -0.029804 -0.029762)
 76:   1823.35   0.093891  474.49  0.016069  (-0.041602 -0.100736 -0.064737)
 77:   3612.25   0.051447  259.99  0.004444  (-0.052641 -0.004704  0.040636)

--------------------------
THERMOCHEMISTRY AT 298.15K
--------------------------

Temperature         ...   298.15 K
Pressure            ...     1.00 atm
Total Mass          ...   414.06 AMU
Quasi RRHO          ...     True
Cut-Off Frequency   ...     1.00 cm^-1

Throughout the following assumptions are being made:
  (1) The electronic state is orbitally nondegenerate
  (2) There are no thermally accessible electronically excited states
  (3) Hindered rotations indicated by low frequency modes are not
      treated as such but are treated as vibrations and this may
      cause some error
  (4) All equations used are the standard statistical mechanics
      equations for an ideal gas
  (5) All vibrations are strictly harmonic

freq.      29.05  E(vib)   ...       0.55
freq.      30.65  E(vib)   ...       0.55
freq.      34.43  E(vib)   ...       0.54
freq.      45.85  E(vib)   ...       0.53
freq.      54.32  E(vib)   ...       0.52
freq.      60.16  E(vib)   ...       0.51
freq.      61.92  E(vib)   ...       0.51
freq.      72.96  E(vib)   ...       0.49
freq.     116.42  E(vib)   ...       0.44
freq.     133.60  E(vib)   ...       0.42
freq.     159.77  E(vib)   ...       0.39
freq.     186.34  E(vib)   ...       0.37
freq.     202.42  E(vib)   ...       0.35
freq.     204.06  E(vib)   ...       0.35
freq.     208.56  E(vib)   ...       0.34
freq.     231.44  E(vib)   ...       0.32
freq.     242.23  E(vib)   ...       0.31
freq.     254.27  E(vib)   ...       0.30
freq.     259.29  E(vib)   ...       0.30
freq.     264.93  E(vib)   ...       0.29
freq.     285.83  E(vib)   ...       0.27
freq.     304.35  E(vib)   ...       0.26
freq.     308.31  E(vib)   ...       0.26
freq.     332.79  E(vib)   ...       0.24
freq.     346.94  E(vib)   ...       0.23
freq.     357.64  E(vib)   ...       0.22
freq.     362.92  E(vib)   ...       0.22
freq.     367.33  E(vib)   ...       0.21
freq.     374.49  E(vib)   ...       0.21
freq.     376.42  E(vib)   ...       0.21
freq.     408.30  E(vib)   ...       0.19
freq.     462.93  E(vib)   ...       0.16
freq.     511.91  E(vib)   ...       0.14
freq.     515.52  E(vib)   ...       0.13
freq.     528.31  E(vib)   ...       0.13
freq.     553.19  E(vib)   ...       0.12
freq.     559.66  E(vib)   ...       0.12
freq.     579.85  E(vib)   ...       0.11
freq.     585.00  E(vib)   ...       0.11
freq.     596.43  E(vib)   ...       0.10
freq.     614.23  E(vib)   ...       0.10
freq.     633.62  E(vib)   ...       0.09
freq.     649.11  E(vib)   ...       0.08
freq.     679.76  E(vib)   ...       0.08
freq.     704.12  E(vib)   ...       0.07
freq.     720.76  E(vib)   ...       0.07
freq.     751.91  E(vib)   ...       0.06
freq.     773.62  E(vib)   ...       0.05
freq.     870.81  E(vib)   ...       0.04
freq.    1004.41  E(vib)   ...       0.02
freq.    1096.10  E(vib)   ...       0.02
freq.    1119.62  E(vib)   ...       0.01
freq.    1129.63  E(vib)   ...       0.01
freq.    1133.11  E(vib)   ...       0.01
freq.    1141.39  E(vib)   ...       0.01
freq.    1145.62  E(vib)   ...       0.01
freq.    1148.66  E(vib)   ...       0.01
freq.    1151.51  E(vib)   ...       0.01
freq.    1159.58  E(vib)   ...       0.01
freq.    1161.97  E(vib)   ...       0.01
freq.    1173.78  E(vib)   ...       0.01
freq.    1183.23  E(vib)   ...       0.01
freq.    1190.33  E(vib)   ...       0.01
freq.    1201.60  E(vib)   ...       0.01
freq.    1222.38  E(vib)   ...       0.01
freq.    1253.27  E(vib)   ...       0.01
freq.    1268.19  E(vib)   ...       0.01
freq.    1292.08  E(vib)   ...       0.01
freq.    1346.83  E(vib)   ...       0.01
freq.    1398.29  E(vib)   ...       0.00
freq.    1823.35  E(vib)   ...       0.00
freq.    3612.25  E(vib)   ...       0.00

------------
INNER ENERGY
------------

The inner energy is: U= E(el) + E(ZPE) + E(vib) + E(rot) + E(trans)
    E(el)   - is the total energy from the electronic structure calculation
              = E(kin-el) + E(nuc-el) + E(el-el) + E(nuc-nuc)
    E(ZPE)  - the the zero temperature vibrational energy from the frequency calculation
    E(vib)  - the the finite temperature correction to E(ZPE) due to population
              of excited vibrational states
    E(rot)  - is the rotational thermal energy
    E(trans)- is the translational thermal energy

Summary of contributions to the inner energy U:
Electronic energy                ...  -1953.64466727 Eh
Zero point energy                ...      0.11009440 Eh      69.09 kcal/mol
Thermal vibrational correction   ...      0.02055706 Eh      12.90 kcal/mol
Thermal rotational correction    ...      0.00141627 Eh       0.89 kcal/mol
Thermal translational correction ...      0.00141627 Eh       0.89 kcal/mol
-----------------------------------------------------------------------
Total thermal energy                  -1953.51118326 Eh

Summary of corrections to the electronic energy:
(perhaps to be used in another calculation)
Total thermal correction                  0.02338961 Eh      14.68 kcal/mol
Non-thermal (ZPE) correction              0.11009440 Eh      69.09 kcal/mol
-----------------------------------------------------------------------
Total correction                          0.13348401 Eh      83.76 kcal/mol

--------
ENTHALPY
--------

The enthalpy is H = U + kB*T
                kB is Boltzmann's constant
Total thermal energy              ...  -1953.51118326 Eh
Thermal Enthalpy correction       ...      0.00094421 Eh       0.59 kcal/mol
-----------------------------------------------------------------------
Total Enthalpy                    ...  -1953.51023905 Eh

Note: Only C1 symmetry has been detected, increase convergence thresholds
      if your molecule has a higher symmetry. Symmetry factor of 1.0 is
      used for the rotational entropy correction.

Note: Rotational entropy computed according to Herzberg
Infrared and Raman Spectra, Chapter V,1, Van Nostrand Reinhold, 1945
Point Group:  C1, Symmetry Number:   1
Rotational constants in cm-1:     0.021264     0.003676     0.003636

Vibrational entropy computed according to the QRRHO of S. Grimme
Chem.Eur.J. 2012 18 9955 using a reference frequency of 100.0 cm-1

-------
ENTROPY
-------

The entropy contributions are T*S = T*(S(el)+S(vib)+S(rot)+S(trans))
     S(el)   - electronic entropy
     S(vib)  - vibrational entropy
     S(rot)  - rotational entropy
     S(trans)- translational entropy
The entropies will be listed as multiplied by the temperature to get
units of energy

                             ****ORCA TERMINATED NORMALLY****
TOTAL RUN TIME: 0 days 0 hours 14 minutes 49 seconds 699 msec
