                         Program Version 6.0.1  -  RELEASE   -
|  1> !B3LYP def2-TZVP opt d3 TightSCF SlowConv defgrid2
|  2>
|  3> %pal
|  4> nprocs 20
|  5> end
|  6>
|  7> %scf
|  8> MaxIter 1500
|  9> end
| 10>
| 11> %maxcore 8000
| 12>
| 13> !CPCM
| 14> %cpcm smd true
| 15> SMDsolvent "ACETONITRILE"
| 16> end
| 17>
| 18> * xyz 0 2
| 19> 6        4.790427000     -0.033865800     -0.529943200
| 20> 8        5.449345000     -1.206924000     -0.894594600
| 21> 8        4.978223000      1.323071000     -0.737377200
| 22> 6        3.506687600     -0.338741600      0.376153800
| 23> 6        2.222300000      0.400524800     -0.110681600
| 24> 6        0.900506800     -0.386389800      0.175703000
| 25> 6       -0.395261200      0.487294000      0.065549000
| 26> 6       -1.705693600     -0.364773800     -0.068373600
| 27> 6       -3.005136200      0.445344800      0.258164000
| 28> 6       -4.319880200     -0.214526000     -0.270540800
| 29> 9        3.211587400     -1.692050400      0.412735200
| 30> 9        3.741061800      0.055285800      1.689948800
| 31> 9        2.125696800      1.616867800      0.483236600
| 32> 9        2.314152400      0.589704000     -1.455769200
| 33> 9        0.794028800     -1.413561400     -0.700839000
| 34> 9       -0.498373400      1.260265600      1.173340200
| 35> 9       -0.299075000      1.289512600     -1.020910800
| 36> 9       -1.641790400     -1.418189000      0.779523800
| 37> 9       -1.792381400     -0.831391600     -1.336863600
| 38> 9       -2.918792200      1.679227200     -0.295171200
| 39> 9       -3.119771000      0.573779800      1.598579800
| 40> 9       -4.383115600     -1.504377600      0.089127600
| 41> 9       -5.365669800      0.430528600      0.260394200
| 42> 9       -4.396020400     -0.128550600     -1.602941800
| 43> 1        5.903122371     -2.014774547     -1.145719253
| 44> *
| 45>
| 46>                          ****END OF INPUT****
 Total Charge           Charge          ....    0
 Multiplicity           Mult            ....    2
 Number of Electrons    NEL             ....  191
Dispersion correction           -0.042183929
FINAL SINGLE POINT ENERGY     -1853.619365797068
Dispersion correction             ... done (  0.0 sec)
Dispersion correction           -0.042447885
FINAL SINGLE POINT ENERGY     -1853.671618390318
Dispersion correction             ... done (  0.0 sec)
Dispersion correction           -0.042606913
FINAL SINGLE POINT ENERGY     -1853.682337979861
Dispersion correction             ... done (  0.0 sec)
FINAL SINGLE POINT ENERGY     -1853.688743669511
FINAL SINGLE POINT ENERGY     -1853.690172984333
FINAL SINGLE POINT ENERGY     -1853.692952417762
FINAL SINGLE POINT ENERGY     -1853.694823637673
FINAL SINGLE POINT ENERGY     -1853.701147235528
FINAL SINGLE POINT ENERGY     -1853.704687755883
FINAL SINGLE POINT ENERGY     -1853.702658599312
FINAL SINGLE POINT ENERGY     -1853.737091007494
FINAL SINGLE POINT ENERGY     -1853.737099460668
FINAL SINGLE POINT ENERGY     -1853.737110378856
FINAL SINGLE POINT ENERGY     -1853.737113994527
FINAL SINGLE POINT ENERGY     -1853.737119147442
FINAL SINGLE POINT ENERGY     -1853.737121649192
FINAL SINGLE POINT ENERGY     -1853.737125937557
Dispersion correction             ... done (  0.0 sec)
Dispersion correction           -0.043281106
FINAL SINGLE POINT ENERGY     -1853.737127468374
Dispersion correction             ... done (  0.0 sec)
Dispersion correction           -0.043279762
FINAL SINGLE POINT ENERGY     -1853.737128581262
Dispersion correction             ... done (  0.0 sec)
                    ***********************HURRAY********************

CARTESIAN COORDINATES (ANGSTROEM)
---------------------------------
  C      4.248093   -0.317620    0.634138
  O      5.020930   -1.129040   -0.072440
  O      4.598110    0.500745    1.434658
  C      2.753220   -0.534893    0.286298
  C      2.286331    0.283536   -0.960284
  C      0.856025    0.048306   -1.352744
  C     -0.367351    0.756761   -0.863067
  C     -1.505405   -0.228124   -0.408188
  C     -2.604112    0.445906    0.479426
  C     -3.925611   -0.379170    0.606128
  F      2.499071   -1.841294    0.036024
  F      2.007224   -0.150473    1.342508
  F      2.495327    1.595089   -0.694350
  F      3.077934   -0.076355   -2.001944
  F      0.645981   -0.949599   -2.192775
  F     -0.047753    1.559514    0.175642
  F     -0.883006    1.539996   -1.853707
  F     -0.949058   -1.230589    0.303842
  F     -2.080718   -0.755468   -1.507820
  F     -2.926632    1.651083   -0.030554
  F     -2.109126    0.616617    1.719814
  F     -3.661458   -1.640403    0.955205
  F     -4.689153    0.177124    1.549127
  F     -4.601139   -0.376807   -0.542463
  H      5.958454   -0.961552    0.150259

 Multiplicity           Mult            ....    2
 Number of Electrons    NEL             ....  191
 Basis Dimension        Dim             ....  750

ORBITAL ENERGIES
----------------
                 SPIN UP ORBITALS
  NO   OCC          E(Eh)            E(eV)
   0   1.0000     -24.759497      -673.7402
   1   1.0000     -24.746347      -673.3823
   2   1.0000     -24.745311      -673.3542
   3   1.0000     -24.744931      -673.3438
   4   1.0000     -24.744736      -673.3385
   5   1.0000     -24.744563      -673.3338
   6   1.0000     -24.744473      -673.3313
   7   1.0000     -24.743356      -673.3010
   8   1.0000     -24.741783      -673.2581
   9   1.0000     -24.736295      -673.1088
  10   1.0000     -24.735224      -673.0797
  11   1.0000     -24.732938      -673.0175
  12   1.0000     -24.732371      -673.0020
  13   1.0000     -24.732310      -673.0004
  14   1.0000     -19.205766      -522.6155
  15   1.0000     -19.153100      -521.1823
  16   1.0000     -10.462480      -284.6986
  17   1.0000     -10.408505      -283.2298
  18   1.0000     -10.408157      -283.2203
  19   1.0000     -10.407998      -283.2160
  20   1.0000     -10.403170      -283.0847
  21   1.0000     -10.391426      -282.7651
  22   1.0000     -10.344751      -281.4950
  23   1.0000     -10.330103      -281.0964
  24   1.0000      -1.354970       -36.8706
  25   1.0000      -1.327862       -36.1330
  26   1.0000      -1.316649       -35.8278
  27   1.0000      -1.309839       -35.6425
  28   1.0000      -1.304661       -35.5016
  29   1.0000      -1.299615       -35.3643
  30   1.0000      -1.294064       -35.2133
  31   1.0000      -1.267993       -34.5038
  32   1.0000      -1.261849       -34.3367
  33   1.0000      -1.259395       -34.2699
  34   1.0000      -1.251961       -34.0676
  35   1.0000      -1.250733       -34.0342
  36   1.0000      -1.245661       -33.8961
  37   1.0000      -1.240282       -33.7498
  38   1.0000      -1.145230       -31.1633
  39   1.0000      -1.061013       -28.8716
  40   1.0000      -0.860499       -23.4154
  41   1.0000      -0.838090       -22.8056
  42   1.0000      -0.810592       -22.0573
  43   1.0000      -0.778241       -21.1770
  44   1.0000      -0.739260       -20.1163
  45   1.0000      -0.700567       -19.0634
  46   1.0000      -0.680710       -18.5231
  47   1.0000      -0.665186       -18.1006
  48   1.0000      -0.651677       -17.7330
  49   1.0000      -0.647415       -17.6171
  50   1.0000      -0.639220       -17.3940
  51   1.0000      -0.629261       -17.1231
  52   1.0000      -0.628276       -17.0963
  53   1.0000      -0.623401       -16.9636
  54   1.0000      -0.614739       -16.7279
  55   1.0000      -0.612119       -16.6566
  56   1.0000      -0.611736       -16.6462
  57   1.0000      -0.598885       -16.2965
  58   1.0000      -0.596322       -16.2268
  59   1.0000      -0.584042       -15.8926
  60   1.0000      -0.580440       -15.7946
  61   1.0000      -0.572266       -15.5721
  62   1.0000      -0.538697       -14.6587
  63   1.0000      -0.519028       -14.1235
  64   1.0000      -0.517008       -14.0685
  65   1.0000      -0.513106       -13.9623
  66   1.0000      -0.506675       -13.7873
  67   1.0000      -0.501812       -13.6550
  68   1.0000      -0.500890       -13.6299
  69   1.0000      -0.495743       -13.4899
  70   1.0000      -0.493477       -13.4282
  71   1.0000      -0.489205       -13.3119
  72   1.0000      -0.485713       -13.2169
  73   1.0000      -0.484459       -13.1828
  74   1.0000      -0.478100       -13.0098
  75   1.0000      -0.475471       -12.9382
  76   1.0000      -0.470672       -12.8076
  77   1.0000      -0.469416       -12.7734
  78   1.0000      -0.466084       -12.6828
  79   1.0000      -0.464974       -12.6526
  80   1.0000      -0.461539       -12.5591
  81   1.0000      -0.454653       -12.3717
  82   1.0000      -0.452728       -12.3193
  83   1.0000      -0.451599       -12.2886
  84   1.0000      -0.447326       -12.1724
  85   1.0000      -0.444689       -12.1006
  86   1.0000      -0.442842       -12.0503
  87   1.0000      -0.439755       -11.9663
  88   1.0000      -0.438492       -11.9320
  89   1.0000      -0.429320       -11.6824
  90   1.0000      -0.413370       -11.2484
  91   1.0000      -0.385961       -10.5025
  92   1.0000      -0.362497        -9.8640
  93   1.0000      -0.359258        -9.7759
  94   1.0000      -0.320335        -8.7168
  95   1.0000      -0.273643        -7.4462
  96   0.0000      -0.044868        -1.2209
  97   0.0000      -0.010612        -0.2888
  98   0.0000       0.017556         0.4777
  99   0.0000       0.031196         0.8489
 100   0.0000       0.040838         1.1112

                 SPIN DOWN ORBITALS
  NO   OCC          E(Eh)            E(eV)
   0   1.0000     -24.754984      -673.6174
   1   1.0000     -24.746348      -673.3824
   2   1.0000     -24.745309      -673.3541
   3   1.0000     -24.744834      -673.3412
   4   1.0000     -24.744735      -673.3385
   5   1.0000     -24.744498      -673.3320
   6   1.0000     -24.744459      -673.3310
   7   1.0000     -24.743351      -673.3008
   8   1.0000     -24.741618      -673.2537
   9   1.0000     -24.735792      -673.0951
  10   1.0000     -24.734774      -673.0674
  11   1.0000     -24.732349      -673.0014
  12   1.0000     -24.732272      -672.9993
  13   1.0000     -24.731546      -672.9796
  14   1.0000     -19.205728      -522.6144
  15   1.0000     -19.152916      -521.1774
  16   1.0000     -10.462457      -284.6979
  17   1.0000     -10.408883      -283.2401
  18   1.0000     -10.408453      -283.2284
  19   1.0000     -10.407664      -283.2069
  20   1.0000     -10.404081      -283.1094
  21   1.0000     -10.390697      -282.7452
  22   1.0000     -10.344663      -281.4926
  23   1.0000     -10.315718      -280.7049
  24   1.0000      -1.354943       -36.8699
  25   1.0000      -1.327082       -36.1117
  26   1.0000      -1.314920       -35.7808
  27   1.0000      -1.309597       -35.6360
  28   1.0000      -1.303528       -35.4708
  29   1.0000      -1.296960       -35.2921
  30   1.0000      -1.287819       -35.0433
  31   1.0000      -1.267922       -34.5019
  32   1.0000      -1.261823       -34.3360
  33   1.0000      -1.259122       -34.2625
  34   1.0000      -1.251806       -34.0634
  35   1.0000      -1.249898       -34.0115
  36   1.0000      -1.243816       -33.8460
  37   1.0000      -1.239774       -33.7360
  38   1.0000      -1.145057       -31.1586
  39   1.0000      -1.060739       -28.8642
  40   1.0000      -0.849878       -23.1264
  41   1.0000      -0.833505       -22.6808
  42   1.0000      -0.808005       -21.9869
  43   1.0000      -0.771895       -21.0043
  44   1.0000      -0.737729       -20.0746
  45   1.0000      -0.698179       -18.9984
  46   1.0000      -0.676342       -18.4042
  47   1.0000      -0.663578       -18.0569
  48   1.0000      -0.650705       -17.7066
  49   1.0000      -0.646343       -17.5879
  50   1.0000      -0.639052       -17.3895
  51   1.0000      -0.627182       -17.0665
  52   1.0000      -0.626624       -17.0513
  53   1.0000      -0.619695       -16.8628
  54   1.0000      -0.613501       -16.6942
  55   1.0000      -0.611306       -16.6345
  56   1.0000      -0.609365       -16.5817
  57   1.0000      -0.597158       -16.2495
  58   1.0000      -0.595626       -16.2078
  59   1.0000      -0.582711       -15.8564
  60   1.0000      -0.578287       -15.7360
  61   1.0000      -0.571384       -15.5482
  62   1.0000      -0.518891       -14.1197
  63   1.0000      -0.516863       -14.0646
  64   1.0000      -0.515753       -14.0344
  65   1.0000      -0.508925       -13.8486
  66   1.0000      -0.503775       -13.7084
  67   1.0000      -0.501075       -13.6349
  68   1.0000      -0.500135       -13.6094
  69   1.0000      -0.495138       -13.4734
  70   1.0000      -0.491613       -13.3775
  71   1.0000      -0.488741       -13.2993
  72   1.0000      -0.484529       -13.1847
  73   1.0000      -0.483359       -13.1529
  74   1.0000      -0.477367       -12.9898
  75   1.0000      -0.474481       -12.9113
  76   1.0000      -0.469808       -12.7841
  77   1.0000      -0.467095       -12.7103
  78   1.0000      -0.465218       -12.6592
  79   1.0000      -0.463714       -12.6183
  80   1.0000      -0.459421       -12.5015
  81   1.0000      -0.454552       -12.3690
  82   1.0000      -0.452044       -12.3007
  83   1.0000      -0.451265       -12.2796
  84   1.0000      -0.446405       -12.1473
  85   1.0000      -0.443911       -12.0794
  86   1.0000      -0.442578       -12.0432
  87   1.0000      -0.439129       -11.9493
  88   1.0000      -0.437135       -11.8951
  89   1.0000      -0.428145       -11.6504
  90   1.0000      -0.411572       -11.1994
  91   1.0000      -0.382893       -10.4191
  92   1.0000      -0.360580        -9.8119
  93   1.0000      -0.358494        -9.7551
  94   1.0000      -0.318255        -8.6602
  95   0.0000      -0.132942        -3.6175
  96   0.0000      -0.040849        -1.1115
  97   0.0000      -0.007982        -0.2172
  98   0.0000       0.019971         0.5434
  99   0.0000       0.032692         0.8896

MULLIKEN ATOMIC CHARGES AND SPIN POPULATIONS
--------------------------------------------
   0 C :    0.227895    0.002334
   1 O :   -0.351281    0.000962
   2 O :   -0.286347    0.006615
   3 C :    0.405168    0.029524
   4 C :    0.370481   -0.024080
   5 C :    0.104713    0.832861
   6 C :    0.372448    0.003179
   7 C :    0.319250    0.007445
   8 C :    0.324579    0.002217
   9 C :    0.476567    0.000889
  10 F :   -0.184431    0.000577
  11 F :   -0.181686    0.000761
  12 F :   -0.175065    0.008577
  13 F :   -0.176512    0.008521
  14 F :   -0.141767    0.087346
  15 F :   -0.175565    0.002994
  16 F :   -0.176579    0.025764
  17 F :   -0.173366    0.000934
  18 F :   -0.169312    0.001884
  19 F :   -0.165176   -0.000027
  20 F :   -0.163196    0.000145
  21 F :   -0.155214   -0.000018
  22 F :   -0.152648    0.000273
  23 F :   -0.152638    0.000022
  24 H :    0.379681    0.000301
Sum of atomic charges         :    0.0000000

LOEWDIN ATOMIC CHARGES AND SPIN POPULATIONS
-------------------------------------------
   0 C :   -0.487316    0.004370
   1 O :    0.152844    0.001011
   2 O :    0.134035    0.005617
   3 C :   -0.446314    0.025604
   4 C :   -0.475203    0.061567
   5 C :   -0.158442    0.652586
   6 C :   -0.472540    0.063542
   7 C :   -0.449875    0.012657
   8 C :   -0.463383    0.002472
   9 C :   -0.663793    0.000716
  10 F :    0.204582    0.000754
  11 F :    0.214195    0.001160
  12 F :    0.213409    0.009865
  13 F :    0.210873    0.008810
  14 F :    0.267045    0.111727
  15 F :    0.222432    0.004075
  16 F :    0.196133    0.028639
  17 F :    0.222709    0.001598
  18 F :    0.222745    0.002460
  19 F :    0.223463    0.000028
  20 F :    0.223341    0.000193
  21 F :    0.225145    0.000002
  22 F :    0.225304    0.000327
  23 F :    0.226925    0.000052
  24 H :    0.231684    0.000169

  Mayer bond orders larger than 0.100000
B(  0-C ,  1-O ) :   1.3070 B(  0-C ,  2-O ) :   2.0826 B(  0-C ,  3-C ) :   0.9011
B(  1-O , 24-H ) :   0.8228 B(  3-C ,  4-C ) :   0.9164 B(  3-C , 10-F ) :   1.0681
B(  3-C , 11-F ) :   1.0894 B(  4-C ,  5-C ) :   1.0155 B(  4-C , 12-F ) :   1.0927
B(  4-C , 13-F ) :   1.0771 B(  5-C ,  6-C ) :   1.0474 B(  5-C , 14-F ) :   1.1304
B(  6-C ,  7-C ) :   0.9143 B(  6-C , 15-F ) :   1.0690 B(  6-C , 16-F ) :   1.0726
B(  7-C ,  8-C ) :   0.9118 B(  7-C , 17-F ) :   1.0727 B(  7-C , 18-F ) :   1.0832
B(  8-C ,  9-C ) :   0.9644 B(  8-C , 19-F ) :   1.0881 B(  8-C , 20-F ) :   1.0980
B(  9-C , 21-F ) :   1.1436 B(  9-C , 22-F ) :   1.1474 B(  9-C , 23-F ) :   1.1550

Dispersion correction           -0.043283122
FINAL SINGLE POINT ENERGY     -1853.737129026292

DIPOLE MOMENT
-------------

Method             : SCF
Type of density    : Electron Density
Multiplicity       :   2
Irrep              :   0
Energy             : -1853.6938459042771683 Eh
Relativity type    :
Basis              : AO
                                X                 Y                 Z
Electronic contribution:    -14.113824919       0.653984983      -1.698564327
Nuclear contribution   :     15.146210870      -1.260378005       1.209505218
                        -----------------------------------------
Total Dipole Moment    :      1.032385951      -0.606393022      -0.489059109
                        -----------------------------------------
Magnitude (a.u.)       :      1.293333701
Magnitude (Debye)      :      3.287393013

Rotational constants in cm-1:             0.018085             0.004424             0.004293
Rotational constants in MHz :           542.164115           132.633893           128.709507

                             ****ORCA TERMINATED NORMALLY****
TOTAL RUN TIME: 0 days 1 hours 3 minutes 40 seconds 553 msec
