                         Program Version 6.0.1  -  RELEASE   -
|  1> !B3LYP def2-TZVP freq d3 TightSCF SlowConv defgrid2
|  2>
|  3> %pal
|  4> nprocs 20
|  5> end
|  6>
|  7> %scf
|  8> MaxIter 1500
|  9> end
| 10>
| 11> %maxcore 8000
| 12>
| 13> !CPCM
| 14> %cpcm smd true
| 15> SMDsolvent "ACETONITRILE"
| 16> end
| 17>
| 18> * xyz -1 2
| 19> 6        4.302457000     -0.561982000     -0.892431000
| 20> 8        4.148918000     -1.473425000     -1.717311000
| 21> 8        5.162957000      0.326591000     -0.793381000
| 22> 6        3.199561000     -0.501741000      0.243662000
| 23> 6        2.134245000      0.600182000      0.004067000
| 24> 6        0.935690000      0.512792000      0.896439000
| 25> 6       -0.439004000      1.029756000      0.601086000
| 26> 6       -1.430246000     -0.088742000      0.123807000
| 27> 6       -2.941761000      0.304207000      0.203031000
| 28> 6       -3.885018000     -0.594638000     -0.658284000
| 29> 9        2.516982000     -1.683303000      0.350683000
| 30> 9        3.770931000     -0.274030000      1.465737000
| 31> 9        2.728302000      1.827139000      0.140750000
| 32> 9        1.717496000      0.513132000     -1.291981000
| 33> 9        1.099448000      0.014297000      2.110374000
| 34> 9       -0.961048000      1.583634000      1.729009000
| 35> 9       -0.377831000      1.983027000     -0.356532000
| 36> 9       -1.241452000     -1.179295000      0.898350000
| 37> 9       -1.115149000     -0.411673000     -1.146487000
| 38> 9       -3.104722000      1.578747000     -0.207131000
| 39> 9       -3.346078000      0.207529000      1.483965000
| 40> 9       -3.657716000     -1.886389000     -0.406774000
| 41> 9       -5.152602000     -0.313636000     -0.347551000
| 42> 9       -3.706984000     -0.365064000     -1.958715000
| 43> *
| 44>
| 45>                          ****END OF INPUT****

CARTESIAN COORDINATES (ANGSTROEM)
---------------------------------
  C      4.302457   -0.561982   -0.892431
  O      4.148918   -1.473425   -1.717311
  O      5.162957    0.326591   -0.793381
  C      3.199561   -0.501741    0.243662
  C      2.134245    0.600182    0.004067
  C      0.935690    0.512792    0.896439
  C     -0.439004    1.029756    0.601086
  C     -1.430246   -0.088742    0.123807
  C     -2.941761    0.304207    0.203031
  C     -3.885018   -0.594638   -0.658284
  F      2.516982   -1.683303    0.350683
  F      3.770931   -0.274030    1.465737
  F      2.728302    1.827139    0.140750
  F      1.717496    0.513132   -1.291981
  F      1.099448    0.014297    2.110374
  F     -0.961048    1.583634    1.729009
  F     -0.377831    1.983027   -0.356532
  F     -1.241452   -1.179295    0.898350
  F     -1.115149   -0.411673   -1.146487
  F     -3.104722    1.578747   -0.207131
  F     -3.346078    0.207529    1.483965
  F     -3.657716   -1.886389   -0.406774
  F     -5.152602   -0.313636   -0.347551
  F     -3.706984   -0.365064   -1.958715

 Total Charge           Charge          ....   -1
 Multiplicity           Mult            ....    2
 Number of Electrons    NEL             ....  191
 Basis Dimension        Dim             ....  744

ORBITAL ENERGIES
----------------
                 SPIN UP ORBITALS
  NO   OCC          E(Eh)            E(eV)
   0   1.0000     -24.747818      -673.4224
   1   1.0000     -24.743989      -673.3182
   2   1.0000     -24.743010      -673.2915
   3   1.0000     -24.742319      -673.2727
   4   1.0000     -24.741656      -673.2547
   5   1.0000     -24.740673      -673.2279
   6   1.0000     -24.740260      -673.2167
   7   1.0000     -24.739696      -673.2014
   8   1.0000     -24.733569      -673.0346
   9   1.0000     -24.732255      -672.9989
  10   1.0000     -24.717305      -672.5921
  11   1.0000     -24.711122      -672.4238
  12   1.0000     -24.696710      -672.0316
  13   1.0000     -24.696395      -672.0231
  14   1.0000     -19.059333      -518.6308
  15   1.0000     -19.058842      -518.6175
  16   1.0000     -10.460019      -284.6316
  17   1.0000     -10.404824      -283.1297
  18   1.0000     -10.401885      -283.0497
  19   1.0000     -10.400540      -283.0131
  20   1.0000     -10.377179      -282.3774
  21   1.0000     -10.340100      -281.3684
  22   1.0000     -10.315829      -280.7080
  23   1.0000     -10.252931      -278.9964
  24   1.0000      -1.352580       -36.8056
  25   1.0000      -1.323076       -36.0027
  26   1.0000      -1.306809       -35.5601
  27   1.0000      -1.301184       -35.4070
  28   1.0000      -1.289176       -35.0803
  29   1.0000      -1.281848       -34.8809
  30   1.0000      -1.264954       -34.4211
  31   1.0000      -1.259558       -34.2743
  32   1.0000      -1.259127       -34.2626
  33   1.0000      -1.255565       -34.1657
  34   1.0000      -1.248337       -33.9690
  35   1.0000      -1.242059       -33.7981
  36   1.0000      -1.223518       -33.2936
  37   1.0000      -1.202410       -32.7192
  38   1.0000      -1.022890       -27.8343
  39   1.0000      -0.940209       -25.5844
  40   1.0000      -0.850278       -23.1372
  41   1.0000      -0.829344       -22.5676
  42   1.0000      -0.792358       -21.5612
  43   1.0000      -0.755349       -20.5541
  44   1.0000      -0.711457       -19.3597
  45   1.0000      -0.688407       -18.7325
  46   1.0000      -0.659760       -17.9530
  47   1.0000      -0.646300       -17.5867
  48   1.0000      -0.643136       -17.5006
  49   1.0000      -0.636128       -17.3099
  50   1.0000      -0.622087       -16.9279
  51   1.0000      -0.617849       -16.8125
  52   1.0000      -0.615540       -16.7497
  53   1.0000      -0.606477       -16.5031
  54   1.0000      -0.602316       -16.3898
  55   1.0000      -0.589705       -16.0467
  56   1.0000      -0.587569       -15.9886
  57   1.0000      -0.577616       -15.7177
  58   1.0000      -0.573254       -15.5990
  59   1.0000      -0.557774       -15.1778
  60   1.0000      -0.548641       -14.9293
  61   1.0000      -0.525786       -14.3074
  62   1.0000      -0.513376       -13.9697
  63   1.0000      -0.508156       -13.8276
  64   1.0000      -0.503273       -13.6948
  65   1.0000      -0.498638       -13.5686
  66   1.0000      -0.495535       -13.4842
  67   1.0000      -0.490239       -13.3401
  68   1.0000      -0.485108       -13.2005
  69   1.0000      -0.479835       -13.0570
  70   1.0000      -0.472886       -12.8679
  71   1.0000      -0.468685       -12.7536
  72   1.0000      -0.462831       -12.5943
  73   1.0000      -0.461779       -12.5656
  74   1.0000      -0.461200       -12.5499
  75   1.0000      -0.455791       -12.4027
  76   1.0000      -0.452748       -12.3199
  77   1.0000      -0.451417       -12.2837
  78   1.0000      -0.447883       -12.1875
  79   1.0000      -0.441979       -12.0269
  80   1.0000      -0.440721       -11.9926
  81   1.0000      -0.440218       -11.9789
  82   1.0000      -0.439471       -11.9586
  83   1.0000      -0.428346       -11.6559
  84   1.0000      -0.426703       -11.6112
  85   1.0000      -0.413839       -11.2611
  86   1.0000      -0.409584       -11.1453
  87   1.0000      -0.406571       -11.0634
  88   1.0000      -0.398334       -10.8392
  89   1.0000      -0.384189       -10.4543
  90   1.0000      -0.370882       -10.0922
  91   1.0000      -0.353371        -9.6157
  92   1.0000      -0.263443        -7.1686
  93   1.0000      -0.248786        -6.7698
  94   1.0000      -0.237293        -6.4571
  95   1.0000      -0.235314        -6.4032
  96   0.0000       0.000315         0.0086
  97   0.0000       0.020824         0.5666
  98   0.0000       0.029139         0.7929
  99   0.0000       0.058644         1.5958
 100   0.0000       0.075293         2.0488

                 SPIN DOWN ORBITALS
  NO   OCC          E(Eh)            E(eV)
   0   1.0000     -24.743991      -673.3182
   1   1.0000     -24.743357      -673.3010
   2   1.0000     -24.743008      -673.2915
   3   1.0000     -24.742287      -673.2719
   4   1.0000     -24.741657      -673.2547
   5   1.0000     -24.740640      -673.2270
   6   1.0000     -24.740250      -673.2164
   7   1.0000     -24.739648      -673.2000
   8   1.0000     -24.733180      -673.0241
   9   1.0000     -24.731542      -672.9795
  10   1.0000     -24.716805      -672.5785
  11   1.0000     -24.709499      -672.3797
  12   1.0000     -24.696628      -672.0294
  13   1.0000     -24.696310      -672.0208
  14   1.0000     -19.059286      -518.6295
  15   1.0000     -19.058827      -518.6170
  16   1.0000     -10.459970      -284.6303
  17   1.0000     -10.404713      -283.1266
  18   1.0000     -10.401431      -283.0373
  19   1.0000     -10.401173      -283.0303
  20   1.0000     -10.377919      -282.3975
  21   1.0000     -10.339966      -281.3648
  22   1.0000     -10.301389      -280.3151
  23   1.0000     -10.252933      -278.9965
  24   1.0000      -1.352538       -36.8044
  25   1.0000      -1.322548       -35.9884
  26   1.0000      -1.306315       -35.5466
  27   1.0000      -1.299380       -35.3579
  28   1.0000      -1.284940       -34.9650
  29   1.0000      -1.276077       -34.7238
  30   1.0000      -1.264882       -34.4192
  31   1.0000      -1.259512       -34.2731
  32   1.0000      -1.258641       -34.2494
  33   1.0000      -1.255316       -34.1589
  34   1.0000      -1.248177       -33.9646
  35   1.0000      -1.240864       -33.7656
  36   1.0000      -1.221001       -33.2251
  37   1.0000      -1.202084       -32.7104
  38   1.0000      -1.022833       -27.8327
  39   1.0000      -0.940139       -25.5825
  40   1.0000      -0.842776       -22.9331
  41   1.0000      -0.820059       -22.3149
  42   1.0000      -0.790335       -21.5061
  43   1.0000      -0.750322       -20.4173
  44   1.0000      -0.707847       -19.2615
  45   1.0000      -0.687302       -18.7024
  46   1.0000      -0.656207       -17.8563
  47   1.0000      -0.644679       -17.5426
  48   1.0000      -0.641745       -17.4628
  49   1.0000      -0.635962       -17.3054
  50   1.0000      -0.620287       -16.8789
  51   1.0000      -0.616482       -16.7753
  52   1.0000      -0.612595       -16.6696
  53   1.0000      -0.605094       -16.4655
  54   1.0000      -0.600638       -16.3442
  55   1.0000      -0.588746       -16.0206
  56   1.0000      -0.583300       -15.8724
  57   1.0000      -0.576899       -15.6982
  58   1.0000      -0.571672       -15.5560
  59   1.0000      -0.555613       -15.1190
  60   1.0000      -0.546316       -14.8660
  61   1.0000      -0.513228       -13.9657
  62   1.0000      -0.508620       -13.8403
  63   1.0000      -0.503942       -13.7130
  64   1.0000      -0.499069       -13.5804
  65   1.0000      -0.496781       -13.5181
  66   1.0000      -0.495009       -13.4699
  67   1.0000      -0.487971       -13.2784
  68   1.0000      -0.483690       -13.1619
  69   1.0000      -0.478822       -13.0294
  70   1.0000      -0.471238       -12.8230
  71   1.0000      -0.467876       -12.7316
  72   1.0000      -0.462704       -12.5908
  73   1.0000      -0.460756       -12.5378
  74   1.0000      -0.458480       -12.4759
  75   1.0000      -0.453624       -12.3437
  76   1.0000      -0.451412       -12.2835
  77   1.0000      -0.450686       -12.2638
  78   1.0000      -0.447451       -12.1758
  79   1.0000      -0.441401       -12.0111
  80   1.0000      -0.439868       -11.9694
  81   1.0000      -0.438789       -11.9401
  82   1.0000      -0.438138       -11.9223
  83   1.0000      -0.427041       -11.6204
  84   1.0000      -0.424404       -11.5486
  85   1.0000      -0.412657       -11.2290
  86   1.0000      -0.409196       -11.1348
  87   1.0000      -0.404377       -11.0036
  88   1.0000      -0.398223       -10.8362
  89   1.0000      -0.384067       -10.4510
  90   1.0000      -0.368711       -10.0331
  91   1.0000      -0.350908        -9.5487
  92   1.0000      -0.248779        -6.7696
  93   1.0000      -0.237443        -6.4612
  94   1.0000      -0.235293        -6.4026
  95   0.0000      -0.119013        -3.2385
  96   0.0000       0.002529         0.0688
  97   0.0000       0.025843         0.7032
  98   0.0000       0.030627         0.8334
  99   0.0000       0.061498         1.6734

MULLIKEN ATOMIC CHARGES AND SPIN POPULATIONS
--------------------------------------------
   0 C :    0.142589   -0.000409
   1 O :   -0.478382    0.001583
   2 O :   -0.485868    0.000623
   3 C :    0.362185   -0.001616
   4 C :    0.337995    0.000236
   5 C :    0.119452    0.832516
   6 C :    0.385963   -0.017390
   7 C :    0.295368    0.029351
   8 C :    0.325259    0.004396
   9 C :    0.475982    0.002069
  10 F :   -0.218509    0.001152
  11 F :   -0.219661    0.001670
  12 F :   -0.196907    0.029603
  13 F :   -0.198951    0.008732
  14 F :   -0.149436    0.085494
  15 F :   -0.179257    0.013108
  16 F :   -0.174173    0.006765
  17 F :   -0.175103    0.000657
  18 F :   -0.173445    0.000676
  19 F :   -0.167385   -0.000050
  20 F :   -0.165012    0.000223
  21 F :   -0.155856   -0.000024
  22 F :   -0.153831    0.000595
  23 F :   -0.153016    0.000039
Sum of atomic charges         :   -1.0000000

LOEWDIN ATOMIC CHARGES AND SPIN POPULATIONS
-------------------------------------------
   0 C :   -0.691477    0.000234
   1 O :   -0.054741    0.001523
   2 O :   -0.057754    0.000476
   3 C :   -0.429192    0.003886
   4 C :   -0.468334    0.056733
   5 C :   -0.165110    0.655549
   6 C :   -0.473978    0.065587
   7 C :   -0.452606    0.023729
   8 C :   -0.462704    0.005359
   9 C :   -0.663998    0.001512
  10 F :    0.159113    0.001927
  11 F :    0.155581    0.002065
  12 F :    0.176320    0.034405
  13 F :    0.192363    0.011399
  14 F :    0.257664    0.110593
  15 F :    0.203275    0.014025
  16 F :    0.214537    0.007709
  17 F :    0.219820    0.001360
  18 F :    0.223289    0.000947
  19 F :    0.221065   -0.000031
  20 F :    0.221801    0.000292
  21 F :    0.224286   -0.000033
  22 F :    0.224143    0.000699
  23 F :    0.226635    0.000054

  Mayer bond orders larger than 0.100000
B(  0-C ,  1-O ) :   1.8975 B(  0-C ,  2-O ) :   1.8825 B(  0-C ,  3-C ) :   0.8355
B(  3-C ,  4-C ) :   0.9115 B(  3-C , 10-F ) :   1.0374 B(  3-C , 11-F ) :   1.0234
B(  4-C ,  5-C ) :   1.0104 B(  4-C , 12-F ) :   1.0613 B(  4-C , 13-F ) :   1.0430
B(  5-C ,  6-C ) :   1.0428 B(  5-C , 14-F ) :   1.1208 B(  6-C ,  7-C ) :   0.9141
B(  6-C , 15-F ) :   1.0679 B(  6-C , 16-F ) :   1.0915 B(  7-C ,  8-C ) :   0.9160
B(  7-C , 17-F ) :   1.0747 B(  7-C , 18-F ) :   1.0888 B(  8-C ,  9-C ) :   0.9653
B(  8-C , 19-F ) :   1.0864 B(  8-C , 20-F ) :   1.0959 B(  9-C , 21-F ) :   1.1432
B(  9-C , 22-F ) :   1.1469 B(  9-C , 23-F ) :   1.1548

Dispersion correction           -0.042073113
FINAL SINGLE POINT ENERGY     -1853.284206757952

DIPOLE MOMENT
-------------

Method             : SCF
Type of density    : Electron Density
Multiplicity       :   2
Irrep              :   0
Energy             : -1853.2421336450474882 Eh
Relativity type    :
Basis              : AO
                                X                 Y                 Z
Electronic contribution:    -17.085165738       1.757438231       3.847605793
Nuclear contribution   :      9.047807551      -0.825861223      -1.896192557
                        -----------------------------------------
Total Dipole Moment    :     -8.037358186       0.931577008       1.951413236
                        -----------------------------------------
Magnitude (a.u.)       :      8.323159013
Magnitude (Debye)      :     21.155788933

VIBRATIONAL FREQUENCIES
-----------------------

Scaling factor for frequencies =  1.000000000  (already applied!)

     0:       0.00 cm**-1
     1:       0.00 cm**-1
     2:       0.00 cm**-1
     3:       0.00 cm**-1
     4:       0.00 cm**-1
     5:       0.00 cm**-1
     6:      -9.87 cm**-1  ***imaginary mode***
     7:      18.53 cm**-1
     8:      28.98 cm**-1
     9:      35.80 cm**-1
    10:      36.60 cm**-1
    11:      53.06 cm**-1
    12:      65.60 cm**-1
    13:      89.00 cm**-1
    14:      99.92 cm**-1
    15:     117.33 cm**-1
    16:     161.60 cm**-1
    17:     176.86 cm**-1
    18:     189.52 cm**-1
    19:     196.24 cm**-1
    20:     205.22 cm**-1
    21:     229.26 cm**-1
    22:     239.65 cm**-1
    23:     243.05 cm**-1
    24:     267.50 cm**-1
    25:     280.71 cm**-1
    26:     284.52 cm**-1
    27:     309.79 cm**-1
    28:     324.92 cm**-1
    29:     340.57 cm**-1
    30:     357.21 cm**-1
    31:     362.05 cm**-1
    32:     370.45 cm**-1
    33:     373.66 cm**-1
    34:     393.37 cm**-1
    35:     440.28 cm**-1
    36:     462.68 cm**-1
    37:     502.64 cm**-1
    38:     520.30 cm**-1
    39:     539.79 cm**-1
    40:     552.15 cm**-1
    41:     573.26 cm**-1
    42:     581.33 cm**-1
    43:     595.00 cm**-1
    44:     622.00 cm**-1
    45:     649.72 cm**-1
    46:     688.05 cm**-1
    47:     696.93 cm**-1
    48:     726.49 cm**-1
    49:     773.92 cm**-1
    50:     791.97 cm**-1
    51:     868.19 cm**-1
    52:     995.00 cm**-1
    53:    1031.87 cm**-1
    54:    1070.41 cm**-1
    55:    1086.15 cm**-1
    56:    1093.18 cm**-1
    57:    1119.82 cm**-1
    58:    1129.22 cm**-1
    59:    1142.57 cm**-1
    60:    1146.09 cm**-1
    61:    1155.51 cm**-1
    62:    1165.14 cm**-1
    63:    1183.29 cm**-1
    64:    1190.17 cm**-1
    65:    1212.69 cm**-1
    66:    1259.82 cm**-1
    67:    1318.40 cm**-1
    68:    1328.30 cm**-1
    69:    1350.95 cm**-1
    70:    1395.79 cm**-1
    71:    1726.78 cm**-1

IR SPECTRUM
-----------

 Mode   freq       eps      Int      T**2         TX        TY        TZ
       cm**-1   L/(mol*cm) km/mol    a.u.
----------------------------------------------------------------------------
  7:     18.53   0.000201    1.01  0.003377  ( 0.006265 -0.050338  0.028357)
  8:     28.98   0.000806    4.07  0.008680  ( 0.065179  0.032054  0.058347)
  9:     35.80   0.000016    0.08  0.000137  (-0.006180 -0.003800 -0.009199)
 10:     36.60   0.000046    0.23  0.000394  (-0.009964 -0.014007  0.009907)
 11:     53.06   0.000042    0.21  0.000248  (-0.007352 -0.003910  0.013349)
 12:     65.60   0.000240    1.21  0.001141  (-0.022115  0.005442 -0.024938)
 13:     89.00   0.000162    0.82  0.000568  ( 0.003182  0.023457 -0.002752)
 14:     99.92   0.001308    6.61  0.004084  ( 0.030187 -0.039556  0.040094)
 15:    117.33   0.000580    2.93  0.001542  (-0.037104  0.012709 -0.001942)
 16:    161.60   0.000008    0.04  0.000016  ( 0.000146  0.000460  0.003908)
 17:    176.86   0.000538    2.72  0.000949  ( 0.019606 -0.016205 -0.017366)
 18:    189.52   0.000312    1.58  0.000514  ( 0.007994  0.016365  0.013482)
 19:    196.24   0.001437    7.26  0.002285  (-0.024840  0.011574 -0.039167)
 20:    205.22   0.001204    6.09  0.001831  (-0.020436 -0.028143  0.024927)
 21:    229.26   0.000150    0.76  0.000204  (-0.005464 -0.008278 -0.010257)
 22:    239.65   0.000161    0.81  0.000210  (-0.008792  0.011001  0.003374)
 23:    243.05   0.000031    0.16  0.000040  (-0.004790 -0.003497  0.002140)
 24:    267.50   0.000228    1.15  0.000266  (-0.010667 -0.002211 -0.012157)
 25:    280.71   0.001147    5.80  0.001275  ( 0.034566 -0.000401 -0.008952)
 26:    284.52   0.000571    2.88  0.000626  ( 0.023773 -0.003713  0.006863)
 27:    309.79   0.000194    0.98  0.000196  ( 0.012025 -0.007103 -0.000836)
 28:    324.92   0.000233    1.18  0.000224  ( 0.013572 -0.006279  0.000279)
 29:    340.57   0.000099    0.50  0.000090  (-0.002283  0.003050 -0.008715)
 30:    357.21   0.000036    0.18  0.000031  ( 0.003978  0.000344 -0.003899)
 31:    362.05   0.000330    1.67  0.000284  ( 0.009916 -0.006810  0.011822)
 32:    370.45   0.000676    3.42  0.000569  (-0.022308  0.008465  0.000342)
 33:    373.66   0.000040    0.20  0.000033  ( 0.003271  0.002856 -0.003791)
 34:    393.37   0.000564    2.85  0.000448  ( 0.019884  0.006943 -0.002035)
 35:    440.28   0.000085    0.43  0.000060  (-0.007325  0.002454 -0.000574)
 36:    462.68   0.001271    6.42  0.000857  (-0.017247  0.019894 -0.012816)
 37:    502.64   0.001672    8.45  0.001038  ( 0.020615 -0.022653  0.010002)
 38:    520.30   0.010482   52.97  0.006287  ( 0.077164 -0.016553 -0.007666)
 39:    539.79   0.002445   12.36  0.001414  (-0.036554  0.000793 -0.008762)
 40:    552.15   0.002678   13.53  0.001513  (-0.030294  0.011741 -0.021395)
 41:    573.26   0.003296   16.66  0.001794  ( 0.024298 -0.021233 -0.027441)
 42:    581.33   0.005889   29.76  0.003161  ( 0.036836  0.042067  0.005876)
 43:    595.00   0.003422   17.29  0.001795  (-0.036570  0.020003 -0.007575)
 44:    622.00   0.012821   64.79  0.006432  (-0.079856  0.006562  0.003510)
 45:    649.72   0.009375   47.38  0.004503  (-0.062226  0.012634  0.021704)
 46:    688.05   0.022656  114.49  0.010276  ( 0.101239  0.004635 -0.002217)
 47:    696.93   0.003973   20.08  0.001779  ( 0.005275 -0.028893 -0.030268)
 48:    726.49   0.013982   70.66  0.006006  ( 0.056732  0.038272  0.036367)
 49:    773.92   0.005085   25.70  0.002050  ( 0.043163  0.013683  0.000477)
 50:    791.97   0.020472  103.46  0.008067  ( 0.051260  0.001609 -0.073733)
 51:    868.19   0.009394   47.47  0.003376  ( 0.038703  0.028891  0.032308)
 52:    995.00   0.007318   36.98  0.002295  (-0.021874  0.042003 -0.007237)
 53:   1031.87   0.048804  246.64  0.014760  ( 0.090970  0.080176  0.007479)
 54:   1070.41   0.051906  262.31  0.015132  (-0.021080 -0.091400 -0.079586)
 55:   1086.15   0.034826  176.00  0.010006  ( 0.061025  0.063386  0.047583)
 56:   1093.18   0.028733  145.20  0.008202  ( 0.019015 -0.063231  0.061987)
 57:   1119.82   0.090747  458.60  0.025289  (-0.020197  0.119887  0.102508)
 58:   1129.22   0.074353  375.75  0.020548  ( 0.004968 -0.075158  0.121960)
 59:   1142.57   0.019957  100.85  0.005451  ( 0.009304 -0.053726  0.049775)
 60:   1146.09   0.027285  137.89  0.007429  (-0.011217 -0.018977  0.083327)
 61:   1155.51   0.057436  290.26  0.015511  (-0.051243 -0.011520  0.112929)
 62:   1165.14   0.113094  571.53  0.030290  (-0.046269  0.142189 -0.089061)
 63:   1183.29   0.052238  263.99  0.013776  (-0.051650 -0.039597  0.097677)
 64:   1190.17   0.004624   23.37  0.001212  (-0.010264  0.006995 -0.032530)
 65:   1212.69   0.019787  100.00  0.005092  ( 0.064214 -0.010946 -0.029133)
 66:   1259.82   0.004568   23.08  0.001132  (-0.028914  0.007226  0.015597)
 67:   1318.40   0.016396   82.86  0.003881  (-0.010024  0.024422  0.056426)
 68:   1328.30   0.039045  197.32  0.009173  (-0.094961  0.009397 -0.008200)
 69:   1350.95   0.053516  270.45  0.012362  (-0.078320  0.006194  0.078673)
 70:   1395.79   0.004725   23.88  0.001056  ( 0.028651 -0.006742  0.013786)
 71:   1726.78   0.161577  816.54  0.029200  ( 0.076090  0.136100  0.069909)

--------------------------
THERMOCHEMISTRY AT 298.15K
--------------------------

Temperature         ...   298.15 K
Pressure            ...     1.00 atm
Total Mass          ...   394.06 AMU
Quasi RRHO          ...     True
Cut-Off Frequency   ...     1.00 cm^-1

Throughout the following assumptions are being made:
  (1) The electronic state is orbitally nondegenerate
      but the spin degeneracy is treated
  (2) There are no thermally accessible electronically excited states
  (3) Hindered rotations indicated by low frequency modes are not
      treated as such but are treated as vibrations and this may
      cause some error
  (4) All equations used are the standard statistical mechanics
      equations for an ideal gas
  (5) All vibrations are strictly harmonic

freq.      18.53  E(vib)   ...       0.57
freq.      28.98  E(vib)   ...       0.55
freq.      35.80  E(vib)   ...       0.54
freq.      36.60  E(vib)   ...       0.54
freq.      53.06  E(vib)   ...       0.52
freq.      65.60  E(vib)   ...       0.50
freq.      89.00  E(vib)   ...       0.47
freq.      99.92  E(vib)   ...       0.46
freq.     117.33  E(vib)   ...       0.44
freq.     161.60  E(vib)   ...       0.39
freq.     176.86  E(vib)   ...       0.38
freq.     189.52  E(vib)   ...       0.36
freq.     196.24  E(vib)   ...       0.36
freq.     205.22  E(vib)   ...       0.35
freq.     229.26  E(vib)   ...       0.32
freq.     239.65  E(vib)   ...       0.31
freq.     243.05  E(vib)   ...       0.31
freq.     267.50  E(vib)   ...       0.29
freq.     280.71  E(vib)   ...       0.28
freq.     284.52  E(vib)   ...       0.28
freq.     309.79  E(vib)   ...       0.26
freq.     324.92  E(vib)   ...       0.24
freq.     340.57  E(vib)   ...       0.23
freq.     357.21  E(vib)   ...       0.22
freq.     362.05  E(vib)   ...       0.22
freq.     370.45  E(vib)   ...       0.21
freq.     373.66  E(vib)   ...       0.21
freq.     393.37  E(vib)   ...       0.20
freq.     440.28  E(vib)   ...       0.17
freq.     462.68  E(vib)   ...       0.16
freq.     502.64  E(vib)   ...       0.14
freq.     520.30  E(vib)   ...       0.13
freq.     539.79  E(vib)   ...       0.12
freq.     552.15  E(vib)   ...       0.12
freq.     573.26  E(vib)   ...       0.11
freq.     581.33  E(vib)   ...       0.11
freq.     595.00  E(vib)   ...       0.10
freq.     622.00  E(vib)   ...       0.09
freq.     649.72  E(vib)   ...       0.08
freq.     688.05  E(vib)   ...       0.07
freq.     696.93  E(vib)   ...       0.07
freq.     726.49  E(vib)   ...       0.06
freq.     773.92  E(vib)   ...       0.05
freq.     791.97  E(vib)   ...       0.05
freq.     868.19  E(vib)   ...       0.04
freq.     995.00  E(vib)   ...       0.02
freq.    1031.87  E(vib)   ...       0.02
freq.    1070.41  E(vib)   ...       0.02
freq.    1086.15  E(vib)   ...       0.02
freq.    1093.18  E(vib)   ...       0.02
freq.    1119.82  E(vib)   ...       0.01
freq.    1129.22  E(vib)   ...       0.01
freq.    1142.57  E(vib)   ...       0.01
freq.    1146.09  E(vib)   ...       0.01
freq.    1155.51  E(vib)   ...       0.01
freq.    1165.14  E(vib)   ...       0.01
freq.    1183.29  E(vib)   ...       0.01
freq.    1190.17  E(vib)   ...       0.01
freq.    1212.69  E(vib)   ...       0.01
freq.    1259.82  E(vib)   ...       0.01
freq.    1318.40  E(vib)   ...       0.01
freq.    1328.30  E(vib)   ...       0.01
freq.    1350.95  E(vib)   ...       0.01
freq.    1395.79  E(vib)   ...       0.00
freq.    1726.78  E(vib)   ...       0.00

------------
INNER ENERGY
------------

The inner energy is: U= E(el) + E(ZPE) + E(vib) + E(rot) + E(trans)
    E(el)   - is the total energy from the electronic structure calculation
              = E(kin-el) + E(nuc-el) + E(el-el) + E(nuc-nuc)
    E(ZPE)  - the the zero temperature vibrational energy from the frequency calculation
    E(vib)  - the the finite temperature correction to E(ZPE) due to population
              of excited vibrational states
    E(rot)  - is the rotational thermal energy
    E(trans)- is the translational thermal energy

Summary of contributions to the inner energy U:
Electronic energy                ...  -1853.28420676 Eh
Zero point energy                ...      0.09234962 Eh      57.95 kcal/mol
Thermal vibrational correction   ...      0.01905086 Eh      11.95 kcal/mol
Thermal rotational correction    ...      0.00141627 Eh       0.89 kcal/mol
Thermal translational correction ...      0.00141627 Eh       0.89 kcal/mol
-----------------------------------------------------------------------
Total thermal energy                  -1853.16997373 Eh

Summary of corrections to the electronic energy:
(perhaps to be used in another calculation)
Total thermal correction                  0.02188341 Eh      13.73 kcal/mol
Non-thermal (ZPE) correction              0.09234962 Eh      57.95 kcal/mol
-----------------------------------------------------------------------
Total correction                          0.11423303 Eh      71.68 kcal/mol

--------
ENTHALPY
--------

The enthalpy is H = U + kB*T
                kB is Boltzmann's constant
Total thermal energy              ...  -1853.16997373 Eh
Thermal Enthalpy correction       ...      0.00094421 Eh       0.59 kcal/mol
-----------------------------------------------------------------------
Total Enthalpy                    ...  -1853.16902952 Eh

Note: Only C1 symmetry has been detected, increase convergence thresholds
      if your molecule has a higher symmetry. Symmetry factor of 1.0 is
      used for the rotational entropy correction.

Note: Rotational entropy computed according to Herzberg
Infrared and Raman Spectra, Chapter V,1, Van Nostrand Reinhold, 1945
Point Group:  C1, Symmetry Number:   1
Rotational constants in cm-1:     0.018114     0.004326     0.004135

Vibrational entropy computed according to the QRRHO of S. Grimme
Chem.Eur.J. 2012 18 9955 using a reference frequency of 100.0 cm-1

-------
ENTROPY
-------

The entropy contributions are T*S = T*(S(el)+S(vib)+S(rot)+S(trans))
     S(el)   - electronic entropy
     S(vib)  - vibrational entropy
     S(rot)  - rotational entropy
     S(trans)- translational entropy
The entropies will be listed as multiplied by the temperature to get
units of energy

Electronic entropy                ...      0.00065446 Eh      0.41 kcal/mol
Vibrational entropy               ...      0.03431035 Eh     21.53 kcal/mol
Rotational entropy                ...      0.01656499 Eh     10.39 kcal/mol
Translational entropy             ...      0.02081341 Eh     13.06 kcal/mol
-----------------------------------------------------------------------
Final entropy term                ...      0.07234321 Eh     45.40 kcal/mol

                             ****ORCA TERMINATED NORMALLY****
TOTAL RUN TIME: 0 days 0 hours 18 minutes 10 seconds 950 msec
