                         Program Version 6.0.1  -  RELEASE   -
|  1> !B3LYP def2-TZVP freq d3 TightSCF SlowConv defgrid2
|  2>
|  3> %pal
|  4> nprocs 20
|  5> end
|  6>
|  7> %scf
|  8> MaxIter 1500
|  9> end
| 10>
| 11> %maxcore 8000
| 12>
| 13> !CPCM
| 14> %cpcm smd true
| 15> SMDsolvent "ACETONITRILE"
| 16> end
| 17>
| 18> * xyz -1 2
| 19> 6        4.831103000      0.082418000     -0.353835000
| 20> 8        5.387568000     -0.754175000     -1.076174000
| 21> 8        5.116646000      1.257725000     -0.075048000
| 22> 6        3.505186000     -0.415857000      0.355943000
| 23> 6        2.234401000      0.299985000     -0.182790000
| 24> 6        0.880673000     -0.417191000      0.146481000
| 25> 6       -0.379244000      0.505996000     -0.010478000
| 26> 6       -1.727429000     -0.289610000     -0.093974000
| 27> 6       -3.002104000      0.563119000      0.201540000
| 28> 6       -4.275570000     -0.190668000     -0.154341000
| 29> 9        3.311931000     -1.758271000      0.196636000
| 30> 9        3.574748000     -0.192309000      1.704103000
| 31> 9        2.174783000      1.554641000      0.317756000
| 32> 9        2.333778000      0.385122000     -1.532829000
| 33> 9        0.735963000     -1.481740000     -0.671743000
| 34> 9        0.914694000     -0.857782000      1.421403000
| 35> 9       -0.431973000      1.342536000      1.045446000
| 36> 9       -0.257194000      1.240175000     -1.135332000
| 37> 9       -1.707197000     -1.302382000      0.797638000
| 38> 9       -1.840790000     -0.808575000     -1.334688000
| 39> 9       -2.921911000      1.731171000     -0.497499000
| 40> 9       -3.041560000      0.857590000      1.514841000
| 41> 9       -5.339196000      0.157924000      0.546281000
| 42> 9       -4.542782000     -0.271907000     -1.444923000
| 43> *
| 44>
| 45>                          ****END OF INPUT****

CARTESIAN COORDINATES (ANGSTROEM)
---------------------------------
  C      4.831103    0.082418   -0.353835
  O      5.387568   -0.754175   -1.076174
  O      5.116646    1.257725   -0.075048
  C      3.505186   -0.415857    0.355943
  C      2.234401    0.299985   -0.182790
  C      0.880673   -0.417191    0.146481
  C     -0.379244    0.505996   -0.010478
  C     -1.727429   -0.289610   -0.093974
  C     -3.002104    0.563119    0.201540
  C     -4.275570   -0.190668   -0.154341
  F      3.311931   -1.758271    0.196636
  F      3.574748   -0.192309    1.704103
  F      2.174783    1.554641    0.317756
  F      2.333778    0.385122   -1.532829
  F      0.735963   -1.481740   -0.671743
  F      0.914694   -0.857782    1.421403
  F     -0.431973    1.342536    1.045446
  F     -0.257194    1.240175   -1.135332
  F     -1.707197   -1.302382    0.797638
  F     -1.840790   -0.808575   -1.334688
  F     -2.921911    1.731171   -0.497499
  F     -3.041560    0.857590    1.514841
  F     -5.339196    0.157924    0.546281
  F     -4.542782   -0.271907   -1.444923

 Total Charge           Charge          ....   -1
 Multiplicity           Mult            ....    2
 Number of Electrons    NEL             ....  191
 Basis Dimension        Dim             ....  744

ORBITAL ENERGIES
----------------
                 SPIN UP ORBITALS
  NO   OCC          E(Eh)            E(eV)
   0   1.0000     -24.747009      -673.4004
   1   1.0000     -24.746818      -673.3951
   2   1.0000     -24.740172      -673.2143
   3   1.0000     -24.739541      -673.1971
   4   1.0000     -24.738429      -673.1669
   5   1.0000     -24.738360      -673.1650
   6   1.0000     -24.736813      -673.1229
   7   1.0000     -24.734023      -673.0470
   8   1.0000     -24.733892      -673.0434
   9   1.0000     -24.733248      -673.0259
  10   1.0000     -24.722865      -672.7434
  11   1.0000     -24.722857      -672.7431
  12   1.0000     -24.697928      -672.0648
  13   1.0000     -24.697919      -672.0645
  14   1.0000     -19.061373      -518.6863
  15   1.0000     -19.059677      -518.6402
  16   1.0000     -10.402671      -283.0711
  17   1.0000     -10.402339      -283.0620
  18   1.0000     -10.401749      -283.0460
  19   1.0000     -10.396276      -282.8970
  20   1.0000     -10.381172      -282.4860
  21   1.0000     -10.375477      -282.3311
  22   1.0000     -10.343081      -281.4496
  23   1.0000     -10.254224      -279.0316
  24   1.0000      -1.329871       -36.1876
  25   1.0000      -1.321276       -35.9538
  26   1.0000      -1.309828       -35.6422
  27   1.0000      -1.301832       -35.4246
  28   1.0000      -1.298429       -35.3321
  29   1.0000      -1.290880       -35.1266
  30   1.0000      -1.262884       -34.3648
  31   1.0000      -1.262363       -34.3506
  32   1.0000      -1.258610       -34.2485
  33   1.0000      -1.250073       -34.0162
  34   1.0000      -1.244175       -33.8557
  35   1.0000      -1.243164       -33.8282
  36   1.0000      -1.233336       -33.5608
  37   1.0000      -1.204717       -32.7820
  38   1.0000      -1.024592       -27.8806
  39   1.0000      -0.942117       -25.6363
  40   1.0000      -0.844443       -22.9785
  41   1.0000      -0.823946       -22.4207
  42   1.0000      -0.794039       -21.6069
  43   1.0000      -0.753974       -20.5167
  44   1.0000      -0.708963       -19.2919
  45   1.0000      -0.678646       -18.4669
  46   1.0000      -0.669549       -18.2193
  47   1.0000      -0.639916       -17.4130
  48   1.0000      -0.638116       -17.3640
  49   1.0000      -0.628503       -17.1024
  50   1.0000      -0.619692       -16.8627
  51   1.0000      -0.616690       -16.7810
  52   1.0000      -0.613112       -16.6836
  53   1.0000      -0.601284       -16.3618
  54   1.0000      -0.599844       -16.3226
  55   1.0000      -0.592696       -16.1281
  56   1.0000      -0.582967       -15.8633
  57   1.0000      -0.578739       -15.7483
  58   1.0000      -0.575127       -15.6500
  59   1.0000      -0.564584       -15.3631
  60   1.0000      -0.555136       -15.1060
  61   1.0000      -0.550027       -14.9670
  62   1.0000      -0.508800       -13.8452
  63   1.0000      -0.507468       -13.8089
  64   1.0000      -0.502464       -13.6728
  65   1.0000      -0.497519       -13.5382
  66   1.0000      -0.491050       -13.3622
  67   1.0000      -0.486967       -13.2511
  68   1.0000      -0.484603       -13.1867
  69   1.0000      -0.480221       -13.0675
  70   1.0000      -0.474881       -12.9222
  71   1.0000      -0.473676       -12.8894
  72   1.0000      -0.468103       -12.7377
  73   1.0000      -0.465729       -12.6731
  74   1.0000      -0.459113       -12.4931
  75   1.0000      -0.455733       -12.4011
  76   1.0000      -0.451126       -12.2757
  77   1.0000      -0.449337       -12.2271
  78   1.0000      -0.448220       -12.1967
  79   1.0000      -0.445111       -12.1121
  80   1.0000      -0.441189       -12.0054
  81   1.0000      -0.437838       -11.9142
  82   1.0000      -0.434760       -11.8304
  83   1.0000      -0.432489       -11.7686
  84   1.0000      -0.426897       -11.6164
  85   1.0000      -0.416584       -11.3358
  86   1.0000      -0.411889       -11.2081
  87   1.0000      -0.403616       -10.9829
  88   1.0000      -0.399440       -10.8693
  89   1.0000      -0.385038       -10.4774
  90   1.0000      -0.375134       -10.2079
  91   1.0000      -0.342082        -9.3085
  92   1.0000      -0.263431        -7.1683
  93   1.0000      -0.250482        -6.8160
  94   1.0000      -0.238688        -6.4950
  95   1.0000      -0.236873        -6.4456
  96   0.0000      -0.003643        -0.0991
  97   0.0000       0.006745         0.1835
  98   0.0000       0.028791         0.7835
  99   0.0000       0.053217         1.4481
 100   0.0000       0.059033         1.6064

                 SPIN DOWN ORBITALS
  NO   OCC          E(Eh)            E(eV)
   0   1.0000     -24.743308      -673.2996
   1   1.0000     -24.742940      -673.2896
   2   1.0000     -24.740063      -673.2113
   3   1.0000     -24.739490      -673.1957
   4   1.0000     -24.738426      -673.1668
   5   1.0000     -24.738359      -673.1650
   6   1.0000     -24.736815      -673.1230
   7   1.0000     -24.734023      -673.0470
   8   1.0000     -24.733248      -673.0259
   9   1.0000     -24.732464      -673.0046
  10   1.0000     -24.722865      -672.7434
  11   1.0000     -24.722857      -672.7431
  12   1.0000     -24.697928      -672.0648
  13   1.0000     -24.697919      -672.0645
  14   1.0000     -19.061372      -518.6863
  15   1.0000     -19.059677      -518.6402
  16   1.0000     -10.402686      -283.0715
  17   1.0000     -10.402305      -283.0611
  18   1.0000     -10.401021      -283.0262
  19   1.0000     -10.396278      -282.8971
  20   1.0000     -10.381172      -282.4861
  21   1.0000     -10.360016      -281.9104
  22   1.0000     -10.343081      -281.4495
  23   1.0000     -10.254224      -279.0316
  24   1.0000      -1.328694       -36.1556
  25   1.0000      -1.316270       -35.8175
  26   1.0000      -1.307571       -35.5808
  27   1.0000      -1.301792       -35.4236
  28   1.0000      -1.296070       -35.2679
  29   1.0000      -1.290870       -35.1264
  30   1.0000      -1.262451       -34.3530
  31   1.0000      -1.260009       -34.2866
  32   1.0000      -1.254393       -34.1338
  33   1.0000      -1.249179       -33.9919
  34   1.0000      -1.244148       -33.8550
  35   1.0000      -1.241245       -33.7760
  36   1.0000      -1.233335       -33.5608
  37   1.0000      -1.204717       -32.7820
  38   1.0000      -1.024592       -27.8806
  39   1.0000      -0.942116       -25.6363
  40   1.0000      -0.842663       -22.9300
  41   1.0000      -0.820418       -22.3247
  42   1.0000      -0.789827       -21.4923
  43   1.0000      -0.749348       -20.3908
  44   1.0000      -0.704607       -19.1733
  45   1.0000      -0.673681       -18.3318
  46   1.0000      -0.669456       -18.2168
  47   1.0000      -0.638442       -17.3729
  48   1.0000      -0.636357       -17.3161
  49   1.0000      -0.626909       -17.0591
  50   1.0000      -0.617557       -16.8046
  51   1.0000      -0.613895       -16.7049
  52   1.0000      -0.611326       -16.6350
  53   1.0000      -0.598783       -16.2937
  54   1.0000      -0.597882       -16.2692
  55   1.0000      -0.590657       -16.0726
  56   1.0000      -0.581998       -15.8370
  57   1.0000      -0.576946       -15.6995
  58   1.0000      -0.574534       -15.6339
  59   1.0000      -0.563994       -15.3470
  60   1.0000      -0.550026       -14.9670
  61   1.0000      -0.526510       -14.3271
  62   1.0000      -0.507781       -13.8174
  63   1.0000      -0.506511       -13.7829
  64   1.0000      -0.500743       -13.6259
  65   1.0000      -0.496735       -13.5168
  66   1.0000      -0.490618       -13.3504
  67   1.0000      -0.484007       -13.1705
  68   1.0000      -0.480499       -13.0750
  69   1.0000      -0.475959       -12.9515
  70   1.0000      -0.474414       -12.9095
  71   1.0000      -0.468559       -12.7501
  72   1.0000      -0.467871       -12.7314
  73   1.0000      -0.460027       -12.5180
  74   1.0000      -0.457820       -12.4579
  75   1.0000      -0.455522       -12.3954
  76   1.0000      -0.449380       -12.2282
  77   1.0000      -0.447638       -12.1808
  78   1.0000      -0.446006       -12.1364
  79   1.0000      -0.444655       -12.0997
  80   1.0000      -0.440786       -11.9944
  81   1.0000      -0.437306       -11.8997
  82   1.0000      -0.434185       -11.8148
  83   1.0000      -0.432302       -11.7635
  84   1.0000      -0.426230       -11.5983
  85   1.0000      -0.416057       -11.3215
  86   1.0000      -0.411889       -11.2081
  87   1.0000      -0.402415       -10.9503
  88   1.0000      -0.399412       -10.8685
  89   1.0000      -0.385036       -10.4774
  90   1.0000      -0.373396       -10.1606
  91   1.0000      -0.341329        -9.2880
  92   1.0000      -0.250482        -6.8160
  93   1.0000      -0.238686        -6.4950
  94   1.0000      -0.236872        -6.4456
  95   0.0000      -0.103471        -2.8156
  96   0.0000       0.000095         0.0026
  97   0.0000       0.007751         0.2109
  98   0.0000       0.031094         0.8461
  99   0.0000       0.055755         1.5172

MULLIKEN ATOMIC CHARGES AND SPIN POPULATIONS
--------------------------------------------
   0 C :    0.143514    0.000002
   1 O :   -0.472605    0.000012
   2 O :   -0.486487    0.000002
   3 C :    0.343130   -0.000018
   4 C :    0.315841    0.000080
   5 C :    0.336304    0.000368
   6 C :    0.324750    0.000481
   7 C :    0.311976    0.009824
   8 C :    0.402557   -0.016648
   9 C :    0.265654    0.846200
  10 F :   -0.211928    0.000001
  11 F :   -0.217981    0.000001
  12 F :   -0.184026   -0.000000
  13 F :   -0.191452   -0.000001
  14 F :   -0.176801   -0.000010
  15 F :   -0.175336   -0.000032
  16 F :   -0.171313   -0.000044
  17 F :   -0.171876   -0.000024
  18 F :   -0.173612    0.001184
  19 F :   -0.171755    0.000672
  20 F :   -0.180504    0.028556
  21 F :   -0.169288    0.000647
  22 F :   -0.143947    0.065597
  23 F :   -0.144817    0.063152
Sum of atomic charges         :   -1.0000000

LOEWDIN ATOMIC CHARGES AND SPIN POPULATIONS
-------------------------------------------
   0 C :   -0.693377    0.000002
   1 O :   -0.050381    0.000009
   2 O :   -0.056894    0.000002
   3 C :   -0.436864    0.000004
   4 C :   -0.453607   -0.000012
   5 C :   -0.454292    0.000018
   6 C :   -0.454860   -0.000297
   7 C :   -0.454919    0.004510
   8 C :   -0.486849    0.073279
   9 C :   -0.388658    0.704711
  10 F :    0.163965    0.000000
  11 F :    0.155445    0.000001
  12 F :    0.208918    0.000001
  13 F :    0.202679    0.000000
  14 F :    0.215065    0.000014
  15 F :    0.217029    0.000017
  16 F :    0.221187    0.000055
  17 F :    0.220454    0.000069
  18 F :    0.223076    0.002525
  19 F :    0.221157    0.001280
  20 F :    0.195061    0.030228
  21 F :    0.220916    0.000318
  22 F :    0.233165    0.093443
  23 F :    0.232583    0.089823

  Mayer bond orders larger than 0.100000
B(  0-C ,  1-O ) :   1.8977 B(  0-C ,  2-O ) :   1.8734 B(  0-C ,  3-C ) :   0.8450
B(  3-C ,  4-C ) :   0.9236 B(  3-C , 10-F ) :   1.0439 B(  3-C , 11-F ) :   1.0311
B(  4-C ,  5-C ) :   0.9263 B(  4-C , 12-F ) :   1.0666 B(  4-C , 13-F ) :   1.0569
B(  5-C ,  6-C ) :   0.9368 B(  5-C , 14-F ) :   1.0699 B(  5-C , 15-F ) :   1.0776
B(  6-C ,  7-C ) :   0.9342 B(  6-C , 16-F ) :   1.0798 B(  6-C , 17-F ) :   1.0798
B(  7-C ,  8-C ) :   0.9337 B(  7-C , 18-F ) :   1.0723 B(  7-C , 19-F ) :   1.0778
B(  8-C ,  9-C ) :   0.8988 B(  8-C , 20-F ) :   1.0592 B(  8-C , 21-F ) :   1.0971
B(  9-C , 22-F ) :   1.1368 B(  9-C , 23-F ) :   1.1427

Dispersion correction           -0.042466213
FINAL SINGLE POINT ENERGY     -1853.266174351102

DIPOLE MOMENT
-------------

Method             : SCF
Type of density    : Electron Density
Multiplicity       :   2
Irrep              :   0
Energy             : -1853.2237081376713377 Eh
Relativity type    :
Basis              : AO
                                X                 Y                 Z
Electronic contribution:    -17.399906041      -0.477769003       1.663991080
Nuclear contribution   :      8.619395112       0.146148003      -0.938538265
                        -----------------------------------------
Total Dipole Moment    :     -8.780510929      -0.331621000       0.725452815
                        -----------------------------------------
Magnitude (a.u.)       :      8.816667536
Magnitude (Debye)      :     22.410187910

VIBRATIONAL FREQUENCIES
-----------------------

Scaling factor for frequencies =  1.000000000  (already applied!)

     0:       0.00 cm**-1
     1:       0.00 cm**-1
     2:       0.00 cm**-1
     3:       0.00 cm**-1
     4:       0.00 cm**-1
     5:       0.00 cm**-1
     6:      19.73 cm**-1
     7:      31.29 cm**-1
     8:      33.38 cm**-1
     9:      40.15 cm**-1
    10:      49.29 cm**-1
    11:      58.62 cm**-1
    12:      65.15 cm**-1
    13:      71.32 cm**-1
    14:     118.72 cm**-1
    15:     137.06 cm**-1
    16:     164.14 cm**-1
    17:     193.41 cm**-1
    18:     203.72 cm**-1
    19:     209.50 cm**-1
    20:     215.71 cm**-1
    21:     232.65 cm**-1
    22:     241.27 cm**-1
    23:     254.06 cm**-1
    24:     260.07 cm**-1
    25:     264.57 cm**-1
    26:     298.48 cm**-1
    27:     306.97 cm**-1
    28:     314.65 cm**-1
    29:     341.53 cm**-1
    30:     351.76 cm**-1
    31:     364.73 cm**-1
    32:     367.49 cm**-1
    33:     373.66 cm**-1
    34:     376.62 cm**-1
    35:     416.44 cm**-1
    36:     460.03 cm**-1
    37:     507.38 cm**-1
    38:     533.56 cm**-1
    39:     544.98 cm**-1
    40:     556.78 cm**-1
    41:     573.36 cm**-1
    42:     577.34 cm**-1
    43:     599.01 cm**-1
    44:     633.43 cm**-1
    45:     653.87 cm**-1
    46:     675.36 cm**-1
    47:     713.40 cm**-1
    48:     743.43 cm**-1
    49:     759.93 cm**-1
    50:     792.66 cm**-1
    51:     869.41 cm**-1
    52:     999.48 cm**-1
    53:    1060.05 cm**-1
    54:    1085.66 cm**-1
    55:    1095.19 cm**-1
    56:    1113.70 cm**-1
    57:    1124.21 cm**-1
    58:    1130.64 cm**-1
    59:    1139.32 cm**-1
    60:    1145.22 cm**-1
    61:    1153.04 cm**-1
    62:    1168.70 cm**-1
    63:    1185.82 cm**-1
    64:    1218.32 cm**-1
    65:    1239.80 cm**-1
    66:    1253.67 cm**-1
    67:    1269.02 cm**-1
    68:    1310.04 cm**-1
    69:    1350.99 cm**-1
    70:    1374.03 cm**-1
    71:    1731.14 cm**-1

IR SPECTRUM
-----------

 Mode   freq       eps      Int      T**2         TX        TY        TZ
       cm**-1   L/(mol*cm) km/mol    a.u.
----------------------------------------------------------------------------
  6:     19.73   0.000078    0.39  0.001233  (-0.008240  0.025786 -0.022354)
  7:     31.29   0.000334    1.69  0.003328  (-0.016822 -0.003840 -0.055050)
  8:     33.38   0.000437    2.21  0.004087  (-0.010436 -0.037585 -0.050653)
  9:     40.15   0.000538    2.72  0.004182  (-0.000351 -0.064472 -0.005031)
 10:     49.29   0.000003    0.02  0.000019  (-0.000917  0.001986 -0.003753)
 11:     58.62   0.000082    0.41  0.000436  ( 0.006510 -0.012448  0.015448)
 12:     65.15   0.000041    0.21  0.000196  ( 0.001814  0.009662  0.009990)
 13:     71.32   0.000608    3.07  0.002659  (-0.017702  0.035884 -0.032529)
 14:    118.72   0.000771    3.89  0.002025  (-0.032985  0.012571 -0.027918)
 15:    137.06   0.000515    2.60  0.001172  (-0.034177  0.001988 -0.000073)
 16:    164.14   0.000263    1.33  0.000500  ( 0.018574 -0.010313  0.006945)
 17:    193.41   0.003313   16.74  0.005345  (-0.002442 -0.006383 -0.072790)
 18:    203.72   0.000147    0.74  0.000225  ( 0.013928 -0.003744  0.004127)
 19:    209.50   0.000098    0.50  0.000146  ( 0.002075  0.011682  0.002305)
 20:    215.71   0.000413    2.08  0.000597  ( 0.003432 -0.019203  0.014706)
 21:    232.65   0.000225    1.13  0.000301  ( 0.009770  0.006361  0.012859)
 22:    241.27   0.000031    0.16  0.000040  (-0.006301  0.000344  0.000529)
 23:    254.06   0.000134    0.68  0.000164  (-0.006384  0.001957  0.010933)
 24:    260.07   0.000005    0.03  0.000006  ( 0.002226  0.000037 -0.001066)
 25:    264.57   0.000219    1.11  0.000259  ( 0.006494 -0.002038  0.014570)
 26:    298.48   0.001368    6.91  0.001431  (-0.036955  0.007002  0.003981)
 27:    306.97   0.000437    2.21  0.000444  ( 0.020289 -0.002481 -0.005138)
 28:    314.65   0.000265    1.34  0.000263  (-0.011227  0.011495 -0.002078)
 29:    341.53   0.000024    0.12  0.000022  ( 0.004242 -0.000398  0.001859)
 30:    351.76   0.000588    2.97  0.000521  ( 0.017182 -0.000697  0.015024)
 31:    364.73   0.000225    1.14  0.000192  (-0.011718 -0.000510 -0.007390)
 32:    367.49   0.000292    1.47  0.000248  (-0.015635  0.001180 -0.001317)
 33:    373.66   0.000086    0.44  0.000072  ( 0.008004 -0.001972  0.001992)
 34:    376.62   0.000008    0.04  0.000007  (-0.002087 -0.001335 -0.000761)
 35:    416.44   0.000611    3.09  0.000458  ( 0.018821 -0.009207 -0.004319)
 36:    460.03   0.003199   16.17  0.002170  ( 0.044987 -0.009577  0.007380)
 37:    507.38   0.000849    4.29  0.000522  (-0.017987 -0.008016 -0.011601)
 38:    533.56   0.019354   97.81  0.011319  ( 0.102088 -0.023858  0.018119)
 39:    544.98   0.011857   59.92  0.006790  (-0.069569 -0.043931 -0.004446)
 40:    556.78   0.002167   10.95  0.001215  ( 0.007926 -0.029015  0.017606)
 41:    573.36   0.001787    9.03  0.000973  ( 0.025586 -0.000185 -0.017837)
 42:    577.34   0.003981   20.12  0.002152  (-0.042956  0.014859  0.009251)
 43:    599.01   0.001953    9.87  0.001018  ( 0.029833 -0.010427  0.004358)
 44:    633.43   0.002245   11.34  0.001106  (-0.031745 -0.002923 -0.009463)
 45:    653.87   0.040594  205.15  0.019374  ( 0.139110  0.004703  0.000429)
 46:    675.36   0.001668    8.43  0.000771  ( 0.026053  0.003796 -0.008813)
 47:    713.40   0.000783    3.96  0.000342  (-0.017233  0.001321  0.006617)
 48:    743.43   0.005427   27.43  0.002278  (-0.046357 -0.008417  0.007641)
 49:    759.93   0.000826    4.18  0.000339  (-0.008085  0.016467 -0.001681)
 50:    792.66   0.020650  104.35  0.008130  (-0.066578 -0.030949  0.052336)
 51:    869.41   0.005665   28.63  0.002033  (-0.043924 -0.009182  0.004437)
 52:    999.48   0.007992   40.39  0.002495  ( 0.048673  0.001128  0.011179)
 53:   1060.05   0.046303  233.99  0.013631  (-0.017215 -0.107749  0.041529)
 54:   1085.66   0.047430  239.69  0.013633  ( 0.015325  0.073324  0.089566)
 55:   1095.19   0.017074   86.29  0.004865  ( 0.021036  0.017688 -0.064108)
 56:   1113.70   0.014598   73.77  0.004090  (-0.012959  0.028744 -0.055643)
 57:   1124.21   0.099527  502.97  0.027627  ( 0.006619  0.159937 -0.044761)
 58:   1130.64   0.031561  159.50  0.008711  ( 0.013215 -0.090713 -0.017538)
 59:   1139.32   0.026732  135.09  0.007322  ( 0.009266  0.074638  0.040809)
 60:   1145.22   0.107341  542.46  0.029250  ( 0.002689 -0.010812 -0.170662)
 61:   1153.04   0.112293  567.48  0.030391  (-0.020725 -0.021910 -0.171703)
 62:   1168.70   0.000728    3.68  0.000194  ( 0.004590  0.011608  0.006214)
 63:   1185.82   0.011773   59.50  0.003098  ( 0.023008 -0.008726 -0.049927)
 64:   1218.32   0.011827   59.77  0.003029  (-0.004541  0.033526  0.043414)
 65:   1239.80   0.028272  142.88  0.007116  ( 0.029169 -0.003354 -0.079083)
 66:   1253.67   0.037260  188.30  0.009275  (-0.028557  0.016962  0.090397)
 67:   1269.02   0.002961   14.96  0.000728  (-0.019557  0.009019  0.016255)
 68:   1310.04   0.006711   33.91  0.001599  (-0.023818 -0.029691  0.012238)
 69:   1350.99   0.037229  188.14  0.008599  (-0.090834  0.018074  0.004677)
 70:   1374.03   0.029909  151.15  0.006793  (-0.073177 -0.027555  0.026051)
 71:   1731.14   0.161980  818.58  0.029199  ( 0.022419 -0.151527 -0.075737)

--------------------------
THERMOCHEMISTRY AT 298.15K
--------------------------

Temperature         ...   298.15 K
Pressure            ...     1.00 atm
Total Mass          ...   394.06 AMU
Quasi RRHO          ...     True
Cut-Off Frequency   ...     1.00 cm^-1

Throughout the following assumptions are being made:
  (1) The electronic state is orbitally nondegenerate
      but the spin degeneracy is treated
  (2) There are no thermally accessible electronically excited states
  (3) Hindered rotations indicated by low frequency modes are not
      treated as such but are treated as vibrations and this may
      cause some error
  (4) All equations used are the standard statistical mechanics
      equations for an ideal gas
  (5) All vibrations are strictly harmonic

freq.      19.73  E(vib)   ...       0.56
freq.      31.29  E(vib)   ...       0.55
freq.      33.38  E(vib)   ...       0.55
freq.      40.15  E(vib)   ...       0.54
freq.      49.29  E(vib)   ...       0.52
freq.      58.62  E(vib)   ...       0.51
freq.      65.15  E(vib)   ...       0.50
freq.      71.32  E(vib)   ...       0.50
freq.     118.72  E(vib)   ...       0.44
freq.     137.06  E(vib)   ...       0.42
freq.     164.14  E(vib)   ...       0.39
freq.     193.41  E(vib)   ...       0.36
freq.     203.72  E(vib)   ...       0.35
freq.     209.50  E(vib)   ...       0.34
freq.     215.71  E(vib)   ...       0.34
freq.     232.65  E(vib)   ...       0.32
freq.     241.27  E(vib)   ...       0.31
freq.     254.06  E(vib)   ...       0.30
freq.     260.07  E(vib)   ...       0.30
freq.     264.57  E(vib)   ...       0.29
freq.     298.48  E(vib)   ...       0.26
freq.     306.97  E(vib)   ...       0.26
freq.     314.65  E(vib)   ...       0.25
freq.     341.53  E(vib)   ...       0.23
freq.     351.76  E(vib)   ...       0.23
freq.     364.73  E(vib)   ...       0.22
freq.     367.49  E(vib)   ...       0.21
freq.     373.66  E(vib)   ...       0.21
freq.     376.62  E(vib)   ...       0.21
freq.     416.44  E(vib)   ...       0.18
freq.     460.03  E(vib)   ...       0.16
freq.     507.38  E(vib)   ...       0.14
freq.     533.56  E(vib)   ...       0.13
freq.     544.98  E(vib)   ...       0.12
freq.     556.78  E(vib)   ...       0.12
freq.     573.36  E(vib)   ...       0.11
freq.     577.34  E(vib)   ...       0.11
freq.     599.01  E(vib)   ...       0.10
freq.     633.43  E(vib)   ...       0.09
freq.     653.87  E(vib)   ...       0.08
freq.     675.36  E(vib)   ...       0.08
freq.     713.40  E(vib)   ...       0.07
freq.     743.43  E(vib)   ...       0.06
freq.     759.93  E(vib)   ...       0.06
freq.     792.66  E(vib)   ...       0.05
freq.     869.41  E(vib)   ...       0.04
freq.     999.48  E(vib)   ...       0.02
freq.    1060.05  E(vib)   ...       0.02
freq.    1085.66  E(vib)   ...       0.02
freq.    1095.19  E(vib)   ...       0.02
freq.    1113.70  E(vib)   ...       0.01
freq.    1124.21  E(vib)   ...       0.01
freq.    1130.64  E(vib)   ...       0.01
freq.    1139.32  E(vib)   ...       0.01
freq.    1145.22  E(vib)   ...       0.01
freq.    1153.04  E(vib)   ...       0.01
freq.    1168.70  E(vib)   ...       0.01
freq.    1185.82  E(vib)   ...       0.01
freq.    1218.32  E(vib)   ...       0.01
freq.    1239.80  E(vib)   ...       0.01
freq.    1253.67  E(vib)   ...       0.01
freq.    1269.02  E(vib)   ...       0.01
freq.    1310.04  E(vib)   ...       0.01
freq.    1350.99  E(vib)   ...       0.01
freq.    1374.03  E(vib)   ...       0.01
freq.    1731.14  E(vib)   ...       0.00

------------
INNER ENERGY
------------

The inner energy is: U= E(el) + E(ZPE) + E(vib) + E(rot) + E(trans)
    E(el)   - is the total energy from the electronic structure calculation
              = E(kin-el) + E(nuc-el) + E(el-el) + E(nuc-nuc)
    E(ZPE)  - the the zero temperature vibrational energy from the frequency calculation
    E(vib)  - the the finite temperature correction to E(ZPE) due to population
              of excited vibrational states
    E(rot)  - is the rotational thermal energy
    E(trans)- is the translational thermal energy

Summary of contributions to the inner energy U:
Electronic energy                ...  -1853.26617435 Eh
Zero point energy                ...      0.09276276 Eh      58.21 kcal/mol
Thermal vibrational correction   ...      0.01975459 Eh      12.40 kcal/mol
Thermal rotational correction    ...      0.00141627 Eh       0.89 kcal/mol
Thermal translational correction ...      0.00141627 Eh       0.89 kcal/mol
-----------------------------------------------------------------------
Total thermal energy                  -1853.15082445 Eh

Summary of corrections to the electronic energy:
(perhaps to be used in another calculation)
Total thermal correction                  0.02258714 Eh      14.17 kcal/mol
Non-thermal (ZPE) correction              0.09276276 Eh      58.21 kcal/mol
-----------------------------------------------------------------------
Total correction                          0.11534990 Eh      72.38 kcal/mol

--------
ENTHALPY
--------

The enthalpy is H = U + kB*T
                kB is Boltzmann's constant
Total thermal energy              ...  -1853.15082445 Eh
Thermal Enthalpy correction       ...      0.00094421 Eh       0.59 kcal/mol
-----------------------------------------------------------------------
Total Enthalpy                    ...  -1853.14988024 Eh

Note: Only C1 symmetry has been detected, increase convergence thresholds
      if your molecule has a higher symmetry. Symmetry factor of 1.0 is
      used for the rotational entropy correction.

Note: Rotational entropy computed according to Herzberg
Infrared and Raman Spectra, Chapter V,1, Van Nostrand Reinhold, 1945
Point Group:  C1, Symmetry Number:   1
Rotational constants in cm-1:     0.022688     0.004048     0.004015

Vibrational entropy computed according to the QRRHO of S. Grimme
Chem.Eur.J. 2012 18 9955 using a reference frequency of 100.0 cm-1

-------
ENTROPY
-------

The entropy contributions are T*S = T*(S(el)+S(vib)+S(rot)+S(trans))
     S(el)   - electronic entropy
     S(vib)  - vibrational entropy
     S(rot)  - rotational entropy
     S(trans)- translational entropy
The entropies will be listed as multiplied by the temperature to get
units of energy

Electronic entropy                ...      0.00065446 Eh      0.41 kcal/mol
Vibrational entropy               ...      0.03559810 Eh     22.34 kcal/mol
Rotational entropy                ...      0.01650391 Eh     10.36 kcal/mol
Translational entropy             ...      0.02081341 Eh     13.06 kcal/mol
-----------------------------------------------------------------------

                             ****ORCA TERMINATED NORMALLY****
TOTAL RUN TIME: 0 days 0 hours 14 minutes 57 seconds 983 msec
