                         Program Version 6.0.1  -  RELEASE   -
|  1> !B3LYP def2-TZVP opt d3 TightSCF SlowConv defgrid2
|  2>
|  3> %pal
|  4> nprocs 20
|  5> end
|  6>
|  7> %scf
|  8> MaxIter 1500
|  9> end
| 10>
| 11> %maxcore 8000
| 12>
| 13> !CPCM
| 14> %cpcm smd true
| 15> SMDsolvent "ACETONITRILE"
| 16> end
| 17>
| 18> * xyz 0 2
| 19> 6        4.790427000     -0.033865800     -0.529943200
| 20> 8        5.449345000     -1.206924000     -0.894594600
| 21> 8        4.978223000      1.323071000     -0.737377200
| 22> 6        3.506687600     -0.338741600      0.376153800
| 23> 6        2.222300000      0.400524800     -0.110681600
| 24> 6        0.900506800     -0.386389800      0.175703000
| 25> 6       -0.395261200      0.487294000      0.065549000
| 26> 6       -1.705693600     -0.364773800     -0.068373600
| 27> 6       -3.005136200      0.445344800      0.258164000
| 28> 6       -4.319880200     -0.214526000     -0.270540800
| 29> 9        3.211587400     -1.692050400      0.412735200
| 30> 9        3.741061800      0.055285800      1.689948800
| 31> 9        2.125696800      1.616867800      0.483236600
| 32> 9        2.314152400      0.589704000     -1.455769200
| 33> 9        0.794028800     -1.413561400     -0.700839000
| 34> 9        0.958350600     -0.884509000      1.435093400
| 35> 9       -0.299075000      1.289512600     -1.020910800
| 36> 9       -1.641790400     -1.418189000      0.779523800
| 37> 9       -1.792381400     -0.831391600     -1.336863600
| 38> 9       -2.918792200      1.679227200     -0.295171200
| 39> 9       -3.119771000      0.573779800      1.598579800
| 40> 9       -4.383115600     -1.504377600      0.089127600
| 41> 9       -5.365669800      0.430528600      0.260394200
| 42> 9       -4.396020400     -0.128550600     -1.602941800
| 43> 1        5.903122371     -2.014774547     -1.145719253
| 44> *
| 45>
| 46>                          ****END OF INPUT****
 Total Charge           Charge          ....    0
 Multiplicity           Mult            ....    2
 Number of Electrons    NEL             ....  191
Dispersion correction           -0.042192648
FINAL SINGLE POINT ENERGY     -1853.618337082882
Dispersion correction             ... done (  0.0 sec)
Dispersion correction           -0.042434311
FINAL SINGLE POINT ENERGY     -1853.671092291827
Dispersion correction             ... done (  0.0 sec)
Dispersion correction           -0.042613596
FINAL SINGLE POINT ENERGY     -1853.682681747445
Dispersion correction             ... done (  0.0 sec)
FINAL SINGLE POINT ENERGY     -1853.689484818389
FINAL SINGLE POINT ENERGY     -1853.691120395536
FINAL SINGLE POINT ENERGY     -1853.692372573973
FINAL SINGLE POINT ENERGY     -1853.694740711337
FINAL SINGLE POINT ENERGY     -1853.697673327685
FINAL SINGLE POINT ENERGY     -1853.704211169015
FINAL SINGLE POINT ENERGY     -1853.709572962844
FINAL SINGLE POINT ENERGY     -1853.736790496767
FINAL SINGLE POINT ENERGY     -1853.736827902404
FINAL SINGLE POINT ENERGY     -1853.736850848774
FINAL SINGLE POINT ENERGY     -1853.736860073485
FINAL SINGLE POINT ENERGY     -1853.736867409217
FINAL SINGLE POINT ENERGY     -1853.736872420049
FINAL SINGLE POINT ENERGY     -1853.736875389978
Dispersion correction             ... done (  0.0 sec)
Dispersion correction           -0.042986246
FINAL SINGLE POINT ENERGY     -1853.736878065854
Dispersion correction             ... done (  0.0 sec)
Dispersion correction           -0.042987637
FINAL SINGLE POINT ENERGY     -1853.736879690797
Dispersion correction             ... done (  0.0 sec)
                    ***********************HURRAY********************

CARTESIAN COORDINATES (ANGSTROEM)
---------------------------------
  C      4.465561    0.356012    0.248830
  O      5.258925   -0.346807   -0.544098
  O      4.653577    1.460735    0.669999
  C      3.171685   -0.434316    0.592154
  C      2.025272   -0.089688   -0.411402
  C      0.774047   -1.028605   -0.338413
  C     -0.411217   -0.465418   -1.058306
  C     -1.858930   -0.675158   -0.714865
  C     -2.461253    0.491939    0.132697
  C     -3.975495    0.384850    0.488997
  F      3.399182   -1.765950    0.569459
  F      2.782060   -0.088440    1.835705
  F      1.628906    1.177822   -0.166106
  F      2.529761   -0.146150   -1.664044
  F      1.129407   -2.235184   -0.871049
  F      0.459553   -1.238284    0.960847
  F     -0.174912    0.202583   -2.171929
  F     -2.006786   -1.827385   -0.021089
  F     -2.568411   -0.763618   -1.866893
  F     -2.282485    1.639074   -0.556471
  F     -1.774782    0.567900    1.290723
  F     -4.220816   -0.718527    1.197334
  F     -4.317052    1.448211    1.223417
  F     -4.726460    0.370920   -0.612378
  H      6.053567    0.182000   -0.758635

 Multiplicity           Mult            ....    2
 Number of Electrons    NEL             ....  191
 Basis Dimension        Dim             ....  750

ORBITAL ENERGIES
----------------
                 SPIN UP ORBITALS
  NO   OCC          E(Eh)            E(eV)
   0   1.0000     -24.760301      -673.7620
   1   1.0000     -24.744365      -673.3284
   2   1.0000     -24.744322      -673.3272
   3   1.0000     -24.743000      -673.2913
   4   1.0000     -24.742911      -673.2888
   5   1.0000     -24.742884      -673.2881
   6   1.0000     -24.741854      -673.2601
   7   1.0000     -24.741659      -673.2548
   8   1.0000     -24.739808      -673.2044
   9   1.0000     -24.739530      -673.1968
  10   1.0000     -24.738001      -673.1552
  11   1.0000     -24.733663      -673.0372
  12   1.0000     -24.732214      -672.9978
  13   1.0000     -24.731336      -672.9739
  14   1.0000     -19.207105      -522.6519
  15   1.0000     -19.154216      -521.2127
  16   1.0000     -10.461078      -284.6604
  17   1.0000     -10.408440      -283.2281
  18   1.0000     -10.406303      -283.1699
  19   1.0000     -10.403797      -283.1017
  20   1.0000     -10.402657      -283.0707
  21   1.0000     -10.395631      -282.8795
  22   1.0000     -10.346001      -281.5290
  23   1.0000     -10.330518      -281.1077
  24   1.0000      -1.353090       -36.8195
  25   1.0000      -1.325443       -36.0671
  26   1.0000      -1.319183       -35.8968
  27   1.0000      -1.306894       -35.5624
  28   1.0000      -1.301801       -35.4238
  29   1.0000      -1.300717       -35.3943
  30   1.0000      -1.296612       -35.2826
  31   1.0000      -1.265629       -34.4395
  32   1.0000      -1.259728       -34.2789
  33   1.0000      -1.258149       -34.2360
  34   1.0000      -1.254665       -34.1412
  35   1.0000      -1.247566       -33.9480
  36   1.0000      -1.243441       -33.8358
  37   1.0000      -1.242847       -33.8196
  38   1.0000      -1.146518       -31.1983
  39   1.0000      -1.062341       -28.9078
  40   1.0000      -0.861654       -23.4468
  41   1.0000      -0.834462       -22.7069
  42   1.0000      -0.813869       -22.1465
  43   1.0000      -0.779491       -21.2110
  44   1.0000      -0.734915       -19.9981
  45   1.0000      -0.704556       -19.1719
  46   1.0000      -0.676111       -18.3979
  47   1.0000      -0.667995       -18.1771
  48   1.0000      -0.648003       -17.6331
  49   1.0000      -0.644247       -17.5308
  50   1.0000      -0.638642       -17.3783
  51   1.0000      -0.633514       -17.2388
  52   1.0000      -0.630299       -17.1513
  53   1.0000      -0.621496       -16.9118
  54   1.0000      -0.614390       -16.7184
  55   1.0000      -0.611692       -16.6450
  56   1.0000      -0.606682       -16.5087
  57   1.0000      -0.599389       -16.3102
  58   1.0000      -0.591333       -16.0910
  59   1.0000      -0.588402       -16.0112
  60   1.0000      -0.580305       -15.7909
  61   1.0000      -0.572506       -15.5787
  62   1.0000      -0.540228       -14.7004
  63   1.0000      -0.520691       -14.1687
  64   1.0000      -0.512751       -13.9527
  65   1.0000      -0.507829       -13.8187
  66   1.0000      -0.506103       -13.7718
  67   1.0000      -0.504757       -13.7351
  68   1.0000      -0.503658       -13.7052
  69   1.0000      -0.495448       -13.4818
  70   1.0000      -0.491987       -13.3877
  71   1.0000      -0.488616       -13.2959
  72   1.0000      -0.486559       -13.2399
  73   1.0000      -0.483552       -13.1581
  74   1.0000      -0.478936       -13.0325
  75   1.0000      -0.476574       -12.9682
  76   1.0000      -0.474242       -12.9048
  77   1.0000      -0.465761       -12.6740
  78   1.0000      -0.464443       -12.6381
  79   1.0000      -0.462289       -12.5795
  80   1.0000      -0.459905       -12.5146
  81   1.0000      -0.458269       -12.4701
  82   1.0000      -0.452775       -12.3206
  83   1.0000      -0.446733       -12.1562
  84   1.0000      -0.446403       -12.1473
  85   1.0000      -0.444177       -12.0867
  86   1.0000      -0.441887       -12.0244
  87   1.0000      -0.441139       -12.0040
  88   1.0000      -0.437376       -11.9016
  89   1.0000      -0.430055       -11.7024
  90   1.0000      -0.415237       -11.2992
  91   1.0000      -0.383303       -10.4302
  92   1.0000      -0.364888        -9.9291
  93   1.0000      -0.360003        -9.7962
  94   1.0000      -0.318215        -8.6591
  95   1.0000      -0.276003        -7.5104
  96   0.0000      -0.051772        -1.4088
  97   0.0000       0.001177         0.0320
  98   0.0000       0.022412         0.6099
  99   0.0000       0.034730         0.9451
 100   0.0000       0.043960         1.1962

                 SPIN DOWN ORBITALS
  NO   OCC          E(Eh)            E(eV)
   0   1.0000     -24.755725      -673.6375
   1   1.0000     -24.744364      -673.3284
   2   1.0000     -24.744322      -673.3272
   3   1.0000     -24.742972      -673.2905
   4   1.0000     -24.742839      -673.2869
   5   1.0000     -24.742808      -673.2860
   6   1.0000     -24.741779      -673.2580
   7   1.0000     -24.741580      -673.2526
   8   1.0000     -24.739333      -673.1915
   9   1.0000     -24.739191      -673.1876
  10   1.0000     -24.737434      -673.1398
  11   1.0000     -24.733662      -673.0372
  12   1.0000     -24.732210      -672.9977
  13   1.0000     -24.729727      -672.9301
  14   1.0000     -19.207103      -522.6519
  15   1.0000     -19.154206      -521.2124
  16   1.0000     -10.460956      -284.6571
  17   1.0000     -10.409317      -283.2519
  18   1.0000     -10.407055      -283.1904
  19   1.0000     -10.403143      -283.0839
  20   1.0000     -10.402439      -283.0648
  21   1.0000     -10.395618      -282.8791
  22   1.0000     -10.345995      -281.5288
  23   1.0000     -10.316035      -280.7136
  24   1.0000      -1.352958       -36.8158
  25   1.0000      -1.324218       -36.0338
  26   1.0000      -1.318277       -35.8721
  27   1.0000      -1.304912       -35.5085
  28   1.0000      -1.301068       -35.4039
  29   1.0000      -1.299828       -35.3701
  30   1.0000      -1.289089       -35.0779
  31   1.0000      -1.265482       -34.4355
  32   1.0000      -1.259566       -34.2745
  33   1.0000      -1.257713       -34.2241
  34   1.0000      -1.254294       -34.1311
  35   1.0000      -1.246610       -33.9220
  36   1.0000      -1.242989       -33.8235
  37   1.0000      -1.240981       -33.7688
  38   1.0000      -1.146509       -31.1981
  39   1.0000      -1.062327       -28.9074
  40   1.0000      -0.849255       -23.1094
  41   1.0000      -0.833385       -22.6776
  42   1.0000      -0.807296       -21.9676
  43   1.0000      -0.777447       -21.1554
  44   1.0000      -0.730479       -19.8773
  45   1.0000      -0.702995       -19.1295
  46   1.0000      -0.671188       -18.2639
  47   1.0000      -0.667777       -18.1711
  48   1.0000      -0.645977       -17.5779
  49   1.0000      -0.642050       -17.4711
  50   1.0000      -0.637934       -17.3591
  51   1.0000      -0.632377       -17.2079
  52   1.0000      -0.629255       -17.1229
  53   1.0000      -0.619481       -16.8569
  54   1.0000      -0.613283       -16.6883
  55   1.0000      -0.610150       -16.6030
  56   1.0000      -0.604335       -16.4448
  57   1.0000      -0.597850       -16.2683
  58   1.0000      -0.589805       -16.0494
  59   1.0000      -0.585876       -15.9425
  60   1.0000      -0.578460       -15.7407
  61   1.0000      -0.571959       -15.5638
  62   1.0000      -0.520720       -14.1695
  63   1.0000      -0.516445       -14.0532
  64   1.0000      -0.510802       -13.8996
  65   1.0000      -0.505879       -13.7657
  66   1.0000      -0.504561       -13.7298
  67   1.0000      -0.503267       -13.6946
  68   1.0000      -0.501668       -13.6511
  69   1.0000      -0.495101       -13.4724
  70   1.0000      -0.491060       -13.3624
  71   1.0000      -0.486755       -13.2453
  72   1.0000      -0.485877       -13.2214
  73   1.0000      -0.482827       -13.1384
  74   1.0000      -0.477804       -13.0017
  75   1.0000      -0.475399       -12.9363
  76   1.0000      -0.471312       -12.8250
  77   1.0000      -0.464222       -12.6321
  78   1.0000      -0.463766       -12.6197
  79   1.0000      -0.461273       -12.5519
  80   1.0000      -0.459585       -12.5060
  81   1.0000      -0.456624       -12.4254
  82   1.0000      -0.452426       -12.3111
  83   1.0000      -0.445981       -12.1358
  84   1.0000      -0.444520       -12.0960
  85   1.0000      -0.443447       -12.0668
  86   1.0000      -0.441664       -12.0183
  87   1.0000      -0.440467       -11.9857
  88   1.0000      -0.436416       -11.8755
  89   1.0000      -0.428675       -11.6648
  90   1.0000      -0.413719       -11.2579
  91   1.0000      -0.380708       -10.3596
  92   1.0000      -0.362902        -9.8751
  93   1.0000      -0.359599        -9.7852
  94   1.0000      -0.317949        -8.6518
  95   0.0000      -0.131795        -3.5863
  96   0.0000      -0.051027        -1.3885
  97   0.0000       0.004124         0.1122
  98   0.0000       0.024572         0.6686
  99   0.0000       0.036605         0.9961

MULLIKEN ATOMIC CHARGES AND SPIN POPULATIONS
--------------------------------------------
   0 C :    0.229504    0.000333
   1 O :   -0.347944   -0.000047
   2 O :   -0.286034    0.000354
   3 C :    0.416521    0.001180
   4 C :    0.309712   -0.001138
   5 C :    0.360899    0.007081
   6 C :    0.128635    0.835432
   7 C :    0.359442   -0.024518
   8 C :    0.320055    0.027434
   9 C :    0.479197    0.004417
  10 F :   -0.176555   -0.000044
  11 F :   -0.173769    0.000089
  12 F :   -0.175347    0.001117
  13 F :   -0.175194    0.001558
  14 F :   -0.179365    0.029756
  15 F :   -0.176582    0.005899
  16 F :   -0.140779    0.088552
  17 F :   -0.172409    0.008242
  18 F :   -0.172351    0.010858
  19 F :   -0.171946    0.000634
  20 F :   -0.170238    0.000674
  21 F :   -0.155662    0.000057
  22 F :   -0.155217    0.002012
  23 F :   -0.154963    0.000035
  24 H :    0.380389    0.000032
Sum of atomic charges         :   -0.0000000

LOEWDIN ATOMIC CHARGES AND SPIN POPULATIONS
-------------------------------------------
   0 C :   -0.489057    0.000324
   1 O :    0.154356    0.000017
   2 O :    0.135148    0.000304
   3 C :   -0.448845    0.001016
   4 C :   -0.445376    0.006396
   5 C :   -0.469862    0.061492
   6 C :   -0.158691    0.656843
   7 C :   -0.476178    0.061915
   8 C :   -0.458581    0.023270
   9 C :   -0.662240    0.004335
  10 F :    0.209245    0.000045
  11 F :    0.213224    0.000119
  12 F :    0.222194    0.001732
  13 F :    0.219106    0.001994
  14 F :    0.192224    0.033631
  15 F :    0.217775    0.007932
  16 F :    0.268967    0.113378
  17 F :    0.216941    0.009389
  18 F :    0.212252    0.011209
  19 F :    0.220016    0.000891
  20 F :    0.222497    0.001275
  21 F :    0.224968    0.000078
  22 F :    0.221343    0.002330
  23 F :    0.225869    0.000060
  24 H :    0.232705    0.000025

  Mayer bond orders larger than 0.100000
B(  0-C ,  1-O ) :   1.3055 B(  0-C ,  2-O ) :   2.0828 B(  0-C ,  3-C ) :   0.8975
B(  1-O , 24-H ) :   0.8218 B(  3-C ,  4-C ) :   0.9364 B(  3-C , 10-F ) :   1.0927
B(  3-C , 11-F ) :   1.1083 B(  4-C ,  5-C ) :   0.9185 B(  4-C , 12-F ) :   1.0795
B(  4-C , 13-F ) :   1.0642 B(  5-C ,  6-C ) :   1.0454 B(  5-C , 14-F ) :   1.0710
B(  5-C , 15-F ) :   1.0640 B(  6-C ,  7-C ) :   1.0230 B(  6-C , 16-F ) :   1.1253
B(  7-C ,  8-C ) :   0.9086 B(  7-C , 17-F ) :   1.0907 B(  7-C , 18-F ) :   1.0861
B(  8-C ,  9-C ) :   0.9627 B(  8-C , 19-F ) :   1.0739 B(  8-C , 20-F ) :   1.0823
B(  9-C , 21-F ) :   1.1505 B(  9-C , 22-F ) :   1.1432 B(  9-C , 23-F ) :   1.1526

Dispersion correction           -0.042987981
FINAL SINGLE POINT ENERGY     -1853.736881037244

DIPOLE MOMENT
-------------

Method             : SCF
Type of density    : Electron Density
Multiplicity       :   2
Irrep              :   0
Energy             : -1853.6938930565040664 Eh
Relativity type    :
Basis              : AO
                                X                 Y                 Z
Electronic contribution:    -14.024670737      -1.535118875      -0.029083470
Nuclear contribution   :     15.004024013       1.380921219      -0.761089006
                        -----------------------------------------
Total Dipole Moment    :      0.979353276      -0.154197656      -0.790172477
                        -----------------------------------------
Magnitude (a.u.)       :      1.267786378
Magnitude (Debye)      :      3.222456879

Rotational constants in cm-1:             0.018862             0.004218             0.004108
Rotational constants in MHz :           565.453914           126.457315           123.163342

                             ****ORCA TERMINATED NORMALLY****
TOTAL RUN TIME: 0 days 1 hours 10 minutes 52 seconds 315 msec
