                         Program Version 6.0.1  -  RELEASE   -
|  1> !B3LYP def2-TZVP opt d3 TightSCF SlowConv defgrid2
|  2>
|  3> %pal
|  4> nprocs 20
|  5> end
|  6>
|  7> %scf
|  8> MaxIter 1500
|  9> end
| 10>
| 11> %maxcore 8000
| 12>
| 13> !CPCM
| 14> %cpcm smd true
| 15> SMDsolvent "ACETONITRILE"
| 16> end
| 17>
| 18> * xyz 0 2
| 19> 6        4.790427000     -0.033865800     -0.529943200
| 20> 8        5.449345000     -1.206924000     -0.894594600
| 21> 8        4.978223000      1.323071000     -0.737377200
| 22> 6        3.506687600     -0.338741600      0.376153800
| 23> 6        2.222300000      0.400524800     -0.110681600
| 24> 6        0.900506800     -0.386389800      0.175703000
| 25> 6       -0.395261200      0.487294000      0.065549000
| 26> 6       -1.705693600     -0.364773800     -0.068373600
| 27> 6       -3.005136200      0.445344800      0.258164000
| 28> 6       -4.319880200     -0.214526000     -0.270540800
| 29> 9        3.211587400     -1.692050400      0.412735200
| 30> 9        3.741061800      0.055285800      1.689948800
| 31> 9        2.314152400      0.589704000     -1.455769200
| 32> 9        0.794028800     -1.413561400     -0.700839000
| 33> 9        0.958350600     -0.884509000      1.435093400
| 34> 9       -0.498373400      1.260265600      1.173340200
| 35> 9       -0.299075000      1.289512600     -1.020910800
| 36> 9       -1.641790400     -1.418189000      0.779523800
| 37> 9       -1.792381400     -0.831391600     -1.336863600
| 38> 9       -2.918792200      1.679227200     -0.295171200
| 39> 9       -3.119771000      0.573779800      1.598579800
| 40> 9       -4.383115600     -1.504377600      0.089127600
| 41> 9       -5.365669800      0.430528600      0.260394200
| 42> 9       -4.396020400     -0.128550600     -1.602941800
| 43> 1        5.903122371     -2.014774547     -1.145719253
| 44> *
| 45>
| 46>                          ****END OF INPUT****
 Total Charge           Charge          ....    0
 Multiplicity           Mult            ....    2
 Number of Electrons    NEL             ....  191
Dispersion correction           -0.042295649
FINAL SINGLE POINT ENERGY     -1853.618005004880
Dispersion correction             ... done (  0.0 sec)
Dispersion correction           -0.042499679
FINAL SINGLE POINT ENERGY     -1853.670416758383
Dispersion correction             ... done (  0.0 sec)
Dispersion correction           -0.042671349
FINAL SINGLE POINT ENERGY     -1853.681696770178
Dispersion correction             ... done (  0.0 sec)
FINAL SINGLE POINT ENERGY     -1853.688391566321
FINAL SINGLE POINT ENERGY     -1853.689868514879
FINAL SINGLE POINT ENERGY     -1853.690769379664
FINAL SINGLE POINT ENERGY     -1853.693093473237
FINAL SINGLE POINT ENERGY     -1853.696083692638
FINAL SINGLE POINT ENERGY     -1853.702388113609
FINAL SINGLE POINT ENERGY     -1853.706247178741
FINAL SINGLE POINT ENERGY     -1853.734865914137
FINAL SINGLE POINT ENERGY     -1853.734880212454
FINAL SINGLE POINT ENERGY     -1853.734914759094
FINAL SINGLE POINT ENERGY     -1853.734913206658
FINAL SINGLE POINT ENERGY     -1853.734940956062
FINAL SINGLE POINT ENERGY     -1853.734946811019
FINAL SINGLE POINT ENERGY     -1853.734952730423
Dispersion correction             ... done (  0.1 sec)
Dispersion correction           -0.042874379
FINAL SINGLE POINT ENERGY     -1853.734955390196
Dispersion correction             ... done (  0.0 sec)
Dispersion correction           -0.042878728
FINAL SINGLE POINT ENERGY     -1853.734956797382
Dispersion correction             ... done (  0.0 sec)
                    ***********************HURRAY********************

CARTESIAN COORDINATES (ANGSTROEM)
---------------------------------
  C      4.425704    0.383092   -0.145470
  O      5.280572   -0.355335   -0.837292
  O      4.450176    1.570449    0.002319
  C      3.310021   -0.500109    0.480134
  C      2.200767   -0.768053   -0.484865
  C      0.812345   -1.210432   -0.140278
  C     -0.236236   -0.043784   -0.176250
  C     -1.733228   -0.505833   -0.131759
  C     -2.720127    0.636972    0.285561
  C     -4.218207    0.350697   -0.057931
  F      3.854024   -1.676107    0.930521
  F      2.822023    0.138482    1.574114
  F      2.462537   -0.617881   -1.771873
  F      0.405904   -2.155982   -1.028494
  F      0.816176   -1.747646    1.100112
  F      0.012623    0.768281    0.871264
  F     -0.044865    0.652007   -1.316207
  F     -1.866272   -1.516226    0.750101
  F     -2.075259   -0.956255   -1.355571
  F     -2.373328    1.783005   -0.334050
  F     -2.633243    0.817917    1.616225
  F     -4.581485   -0.855190    0.384643
  F     -4.977553    1.273363    0.536871
  F     -4.425906    0.413011   -1.372786
  H      5.961669    0.223469   -1.234451

 Multiplicity           Mult            ....    2
 Number of Electrons    NEL             ....  191
 Basis Dimension        Dim             ....  750

ORBITAL ENERGIES
----------------
                 SPIN UP ORBITALS
  NO   OCC          E(Eh)            E(eV)
   0   1.0000     -24.758541      -673.7141
   1   1.0000     -24.746515      -673.3869
   2   1.0000     -24.745576      -673.3613
   3   1.0000     -24.745415      -673.3570
   4   1.0000     -24.745143      -673.3496
   5   1.0000     -24.745126      -673.3491
   6   1.0000     -24.744683      -673.3371
   7   1.0000     -24.744390      -673.3291
   8   1.0000     -24.744074      -673.3205
   9   1.0000     -24.743376      -673.3015
  10   1.0000     -24.739401      -673.1933
  11   1.0000     -24.737264      -673.1352
  12   1.0000     -24.726288      -672.8365
  13   1.0000     -24.721331      -672.7016
  14   1.0000     -19.205665      -522.6127
  15   1.0000     -19.152777      -521.1736
  16   1.0000     -10.462840      -284.7084
  17   1.0000     -10.410547      -283.2854
  18   1.0000     -10.408981      -283.2428
  19   1.0000     -10.406835      -283.1844
  20   1.0000     -10.406399      -283.1725
  21   1.0000     -10.392546      -282.7956
  22   1.0000     -10.344103      -281.4773
  23   1.0000     -10.326528      -280.9991
  24   1.0000      -1.355255       -36.8784
  25   1.0000      -1.332042       -36.2467
  26   1.0000      -1.316501       -35.8238
  27   1.0000      -1.309308       -35.6281
  28   1.0000      -1.306149       -35.5421
  29   1.0000      -1.297359       -35.3029
  30   1.0000      -1.291663       -35.1479
  31   1.0000      -1.268859       -34.5274
  32   1.0000      -1.262497       -34.3543
  33   1.0000      -1.261825       -34.3360
  34   1.0000      -1.255162       -34.1547
  35   1.0000      -1.251683       -34.0600
  36   1.0000      -1.247497       -33.9461
  37   1.0000      -1.232263       -33.5316
  38   1.0000      -1.144947       -31.1556
  39   1.0000      -1.060638       -28.8614
  40   1.0000      -0.857708       -23.3394
  41   1.0000      -0.842404       -22.9230
  42   1.0000      -0.811618       -22.0853
  43   1.0000      -0.779521       -21.2118
  44   1.0000      -0.736472       -20.0404
  45   1.0000      -0.700243       -19.0546
  46   1.0000      -0.684466       -18.6253
  47   1.0000      -0.661044       -17.9879
  48   1.0000      -0.653185       -17.7741
  49   1.0000      -0.648368       -17.6430
  50   1.0000      -0.640006       -17.4154
  51   1.0000      -0.631259       -17.1774
  52   1.0000      -0.627984       -17.0883
  53   1.0000      -0.626535       -17.0489
  54   1.0000      -0.616307       -16.7706
  55   1.0000      -0.608427       -16.5562
  56   1.0000      -0.606225       -16.4962
  57   1.0000      -0.602414       -16.3925
  58   1.0000      -0.593937       -16.1618
  59   1.0000      -0.588642       -16.0178
  60   1.0000      -0.580062       -15.7843
  61   1.0000      -0.569348       -15.4927
  62   1.0000      -0.536426       -14.5969
  63   1.0000      -0.518952       -14.1214
  64   1.0000      -0.518455       -14.1079
  65   1.0000      -0.514153       -13.9908
  66   1.0000      -0.509597       -13.8668
  67   1.0000      -0.504662       -13.7325
  68   1.0000      -0.501866       -13.6565
  69   1.0000      -0.500805       -13.6276
  70   1.0000      -0.495049       -13.4710
  71   1.0000      -0.490359       -13.3434
  72   1.0000      -0.487911       -13.2767
  73   1.0000      -0.481593       -13.1048
  74   1.0000      -0.479035       -13.0352
  75   1.0000      -0.476610       -12.9692
  76   1.0000      -0.468592       -12.7510
  77   1.0000      -0.465564       -12.6686
  78   1.0000      -0.464425       -12.6376
  79   1.0000      -0.461058       -12.5460
  80   1.0000      -0.460082       -12.5195
  81   1.0000      -0.455847       -12.4042
  82   1.0000      -0.454435       -12.3658
  83   1.0000      -0.449973       -12.2444
  84   1.0000      -0.447947       -12.1893
  85   1.0000      -0.445192       -12.1143
  86   1.0000      -0.443239       -12.0611
  87   1.0000      -0.441595       -12.0164
  88   1.0000      -0.436813       -11.8863
  89   1.0000      -0.431297       -11.7362
  90   1.0000      -0.409781       -11.1507
  91   1.0000      -0.392662       -10.6849
  92   1.0000      -0.360549        -9.8110
  93   1.0000      -0.358384        -9.7521
  94   1.0000      -0.318552        -8.6683
  95   1.0000      -0.272752        -7.4219
  96   0.0000      -0.045303        -1.2328
  97   0.0000       0.002837         0.0772
  98   0.0000       0.004451         0.1211
  99   0.0000       0.033086         0.9003
 100   0.0000       0.037315         1.0154

                 SPIN DOWN ORBITALS
  NO   OCC          E(Eh)            E(eV)
   0   1.0000     -24.753949      -673.5892
   1   1.0000     -24.746516      -673.3869
   2   1.0000     -24.745577      -673.3614
   3   1.0000     -24.745415      -673.3570
   4   1.0000     -24.745145      -673.3496
   5   1.0000     -24.745118      -673.3489
   6   1.0000     -24.744673      -673.3368
   7   1.0000     -24.744363      -673.3284
   8   1.0000     -24.744071      -673.3204
   9   1.0000     -24.743339      -673.3005
  10   1.0000     -24.739111      -673.1854
  11   1.0000     -24.736497      -673.1143
  12   1.0000     -24.725508      -672.8153
  13   1.0000     -24.719743      -672.6584
  14   1.0000     -19.205637      -522.6120
  15   1.0000     -19.152727      -521.1722
  16   1.0000     -10.462824      -284.7079
  17   1.0000     -10.410429      -283.2822
  18   1.0000     -10.408937      -283.2416
  19   1.0000     -10.407697      -283.2078
  20   1.0000     -10.405746      -283.1548
  21   1.0000     -10.393274      -282.8154
  22   1.0000     -10.344048      -281.4759
  23   1.0000     -10.312141      -280.6076
  24   1.0000      -1.355241       -36.8780
  25   1.0000      -1.331698       -36.2373
  26   1.0000      -1.315624       -35.7999
  27   1.0000      -1.309151       -35.6238
  28   1.0000      -1.304133       -35.4873
  29   1.0000      -1.292491       -35.1705
  30   1.0000      -1.286284       -35.0016
  31   1.0000      -1.268816       -34.5262
  32   1.0000      -1.262383       -34.3512
  33   1.0000      -1.261750       -34.3340
  34   1.0000      -1.254962       -34.1493
  35   1.0000      -1.251615       -34.0582
  36   1.0000      -1.246429       -33.9171
  37   1.0000      -1.229371       -33.4529
  38   1.0000      -1.144832       -31.1525
  39   1.0000      -1.060541       -28.8588
  40   1.0000      -0.850238       -23.1362
  41   1.0000      -0.834290       -22.7022
  42   1.0000      -0.807552       -21.9746
  43   1.0000      -0.777781       -21.1645
  44   1.0000      -0.731951       -19.9174
  45   1.0000      -0.697622       -18.9832
  46   1.0000      -0.682743       -18.5784
  47   1.0000      -0.658175       -17.9099
  48   1.0000      -0.652216       -17.7477
  49   1.0000      -0.647529       -17.6202
  50   1.0000      -0.639769       -17.4090
  51   1.0000      -0.629412       -17.1272
  52   1.0000      -0.626452       -17.0466
  53   1.0000      -0.625058       -17.0087
  54   1.0000      -0.614736       -16.7278
  55   1.0000      -0.606435       -16.5019
  56   1.0000      -0.603903       -16.4330
  57   1.0000      -0.601297       -16.3621
  58   1.0000      -0.589544       -16.0423
  59   1.0000      -0.587628       -15.9902
  60   1.0000      -0.578745       -15.7484
  61   1.0000      -0.567635       -15.4461
  62   1.0000      -0.518911       -14.1203
  63   1.0000      -0.518252       -14.1023
  64   1.0000      -0.514562       -14.0020
  65   1.0000      -0.510879       -13.9017
  66   1.0000      -0.506735       -13.7890
  67   1.0000      -0.502261       -13.6672
  68   1.0000      -0.501534       -13.6474
  69   1.0000      -0.499530       -13.5929
  70   1.0000      -0.493639       -13.4326
  71   1.0000      -0.490015       -13.3340
  72   1.0000      -0.486824       -13.2471
  73   1.0000      -0.481083       -13.0909
  74   1.0000      -0.477573       -12.9954
  75   1.0000      -0.475704       -12.9446
  76   1.0000      -0.467388       -12.7183
  77   1.0000      -0.465296       -12.6613
  78   1.0000      -0.461306       -12.5528
  79   1.0000      -0.459213       -12.4958
  80   1.0000      -0.457634       -12.4529
  81   1.0000      -0.455635       -12.3985
  82   1.0000      -0.454270       -12.3613
  83   1.0000      -0.449622       -12.2348
  84   1.0000      -0.446927       -12.1615
  85   1.0000      -0.444635       -12.0991
  86   1.0000      -0.442980       -12.0541
  87   1.0000      -0.439561       -11.9611
  88   1.0000      -0.434840       -11.8326
  89   1.0000      -0.430059       -11.7025
  90   1.0000      -0.407711       -11.0944
  91   1.0000      -0.390094       -10.6150
  92   1.0000      -0.359831        -9.7915
  93   1.0000      -0.356570        -9.7028
  94   1.0000      -0.318003        -8.6533
  95   0.0000      -0.130085        -3.5398
  96   0.0000      -0.043296        -1.1782
  97   0.0000       0.005407         0.1471
  98   0.0000       0.007323         0.1993
  99   0.0000       0.036571         0.9951

MULLIKEN ATOMIC CHARGES AND SPIN POPULATIONS
--------------------------------------------
   0 C :    0.234281   -0.003489
   1 O :   -0.353546   -0.000154
   2 O :   -0.286719    0.001892
   3 C :    0.439801    0.004899
   4 C :    0.106133    0.825003
   5 C :    0.385959   -0.016781
   6 C :    0.318159    0.028951
   7 C :    0.310297    0.004834
   8 C :    0.325463    0.001871
   9 C :    0.475937    0.000584
  10 F :   -0.190784    0.028584
  11 F :   -0.182910    0.013696
  12 F :   -0.144964    0.088110
  13 F :   -0.175737    0.014335
  14 F :   -0.171644    0.005222
  15 F :   -0.172343    0.000574
  16 F :   -0.172448    0.000778
  17 F :   -0.167760   -0.000042
  18 F :   -0.168109    0.000214
  19 F :   -0.165792    0.000017
  20 F :   -0.162764    0.000068
  21 F :   -0.154734   -0.000014
  22 F :   -0.152448    0.000193
  23 F :   -0.152636    0.000013
  24 H :    0.379311    0.000641
Sum of atomic charges         :    0.0000000

LOEWDIN ATOMIC CHARGES AND SPIN POPULATIONS
-------------------------------------------
   0 C :   -0.482759    0.001822
   1 O :    0.152582    0.000562
   2 O :    0.133580    0.001586
   3 C :   -0.457698    0.060866
   4 C :   -0.154720    0.651715
   5 C :   -0.474491    0.063973
   6 C :   -0.450921    0.023286
   7 C :   -0.456551    0.005429
   8 C :   -0.462849    0.001795
   9 C :   -0.663660    0.000473
  10 F :    0.173156    0.033674
  11 F :    0.199822    0.017431
  12 F :    0.264551    0.113665
  13 F :    0.206876    0.015174
  14 F :    0.219179    0.005781
  15 F :    0.224527    0.000828
  16 F :    0.223015    0.001044
  17 F :    0.224773   -0.000045
  18 F :    0.223814    0.000271
  19 F :    0.223392   -0.000034
  20 F :    0.224609    0.000080
  21 F :    0.225506   -0.000013
  22 F :    0.225468    0.000226
  23 F :    0.226865    0.000018
  24 H :    0.231934    0.000393

  Mayer bond orders larger than 0.100000
B(  0-C ,  1-O ) :   1.2986 B(  0-C ,  2-O ) :   2.0868 B(  0-C ,  3-C ) :   0.8935
B(  1-O , 24-H ) :   0.8231 B(  3-C ,  4-C ) :   1.0198 B(  3-C , 10-F ) :   1.0733
B(  3-C , 11-F ) :   1.0863 B(  4-C ,  5-C ) :   1.0512 B(  4-C , 12-F ) :   1.1242
B(  5-C ,  6-C ) :   0.9231 B(  5-C , 13-F ) :   1.0712 B(  5-C , 14-F ) :   1.0901
B(  6-C ,  7-C ) :   0.9220 B(  6-C , 15-F ) :   1.0822 B(  6-C , 16-F ) :   1.0750
B(  7-C ,  8-C ) :   0.9232 B(  7-C , 17-F ) :   1.0828 B(  7-C , 18-F ) :   1.0882
B(  8-C ,  9-C ) :   0.9673 B(  8-C , 19-F ) :   1.0870 B(  8-C , 20-F ) :   1.0963
B(  9-C , 21-F ) :   1.1442 B(  9-C , 22-F ) :   1.1480 B(  9-C , 23-F ) :   1.1555

Dispersion correction           -0.042879428
FINAL SINGLE POINT ENERGY     -1853.734957204666

DIPOLE MOMENT
-------------

Method             : SCF
Type of density    : Electron Density
Multiplicity       :   2
Irrep              :   0
Energy             : -1853.6920777762209127 Eh
Relativity type    :
Basis              : AO
                                X                 Y                 Z
Electronic contribution:    -14.691867536      -1.679917201       1.053905419
Nuclear contribution   :     15.724490209       1.505418940      -1.953817813
                        -----------------------------------------
Total Dipole Moment    :      1.032622673      -0.174498260      -0.899912394
                        -----------------------------------------
Magnitude (a.u.)       :      1.380797430
Magnitude (Debye)      :      3.509708147

Rotational constants in cm-1:             0.020376             0.004060             0.003979
Rotational constants in MHz :           610.871913           121.717781           119.283704

                             ****ORCA TERMINATED NORMALLY****
TOTAL RUN TIME: 0 days 1 hours 7 minutes 13 seconds 991 msec
