                         Program Version 5.0.3 -  RELEASE  -
|  1> !B3LYP def2-TZVP opt d3 TightSCF SlowConv defgrid2
|  2>
|  3> %pal
|  4> nprocs 20
|  5> end
|  6>
|  7> %scf
|  8> MaxIter 1500
|  9> end
| 10>
| 11> %maxcore 8000
| 12>
| 13> !CPCM
| 14> %cpcm smd true
| 15> SMDsolvent "ACETONITRILE"
| 16> end
| 17>
| 18> * xyz -1 2
| 19> 6        4.790427000     -0.033865800     -0.529943200
| 20> 8        5.449345000     -1.206924000     -0.894594600
| 21> 8        4.978223000      1.323071000     -0.737377200
| 22> 6        3.506687600     -0.338741600      0.376153800
| 23> 6        2.222300000      0.400524800     -0.110681600
| 24> 6        0.900506800     -0.386389800      0.175703000
| 25> 6       -0.395261200      0.487294000      0.065549000
| 26> 6       -1.705693600     -0.364773800     -0.068373600
| 27> 6       -3.005136200      0.445344800      0.258164000
| 28> 6       -4.319880200     -0.214526000     -0.270540800
| 29> 9        3.741061800      0.055285800      1.689948800
| 30> 9        2.125696800      1.616867800      0.483236600
| 31> 9        2.314152400      0.589704000     -1.455769200
| 32> 9        0.794028800     -1.413561400     -0.700839000
| 33> 9        0.958350600     -0.884509000      1.435093400
| 34> 9       -0.498373400      1.260265600      1.173340200
| 35> 9       -0.299075000      1.289512600     -1.020910800
| 36> 9       -1.641790400     -1.418189000      0.779523800
| 37> 9       -1.792381400     -0.831391600     -1.336863600
| 38> 9       -2.918792200      1.679227200     -0.295171200
| 39> 9       -3.119771000      0.573779800      1.598579800
| 40> 9       -4.383115600     -1.504377600      0.089127600
| 41> 9       -5.365669800      0.430528600      0.260394200
| 42> 9       -4.396020400     -0.128550600     -1.602941800
| 43> *
| 44>
| 45>                          ****END OF INPUT****
 Total Charge           Charge          ....   -1
 Multiplicity           Mult            ....    2
 Number of Electrons    NEL             ....  191
Dispersion correction           -0.041799958
FINAL SINGLE POINT ENERGY     -1853.218436967629
Dispersion correction            ... done
Dispersion correction           -0.041972020
FINAL SINGLE POINT ENERGY     -1853.262938459686
Dispersion correction            ... done
Dispersion correction           -0.042039397
FINAL SINGLE POINT ENERGY     -1853.270512145029
Dispersion correction            ... done
FINAL SINGLE POINT ENERGY     -1853.273350991440
FINAL SINGLE POINT ENERGY     -1853.272543945098
FINAL SINGLE POINT ENERGY     -1853.275266134911
FINAL SINGLE POINT ENERGY     -1853.275503327690
FINAL SINGLE POINT ENERGY     -1853.275714435580
FINAL SINGLE POINT ENERGY     -1853.276054679033
FINAL SINGLE POINT ENERGY     -1853.276527893707
FINAL SINGLE POINT ENERGY     -1853.283387480109
FINAL SINGLE POINT ENERGY     -1853.283567501485
FINAL SINGLE POINT ENERGY     -1853.283735733174
FINAL SINGLE POINT ENERGY     -1853.283812717734
FINAL SINGLE POINT ENERGY     -1853.283788841426
FINAL SINGLE POINT ENERGY     -1853.283809960615
FINAL SINGLE POINT ENERGY     -1853.283816366750
Dispersion correction            ... done
Dispersion correction           -0.042345519
FINAL SINGLE POINT ENERGY     -1853.283805957994
Dispersion correction            ... done
Dispersion correction           -0.042347733
FINAL SINGLE POINT ENERGY     -1853.283794665177
Dispersion correction            ... done
                    ***********************HURRAY********************

CARTESIAN COORDINATES (ANGSTROEM)
---------------------------------
  C      4.428790   -0.683608   -0.369711
  O      4.003666   -1.071271   -1.481565
  O      5.466817   -0.999341    0.247165
  C      3.545268    0.309620    0.329601
  C      2.249637    0.902277   -0.132672
  C      1.006343   -0.028746    0.090703
  C     -0.384578    0.689575    0.027427
  C     -1.586352   -0.306246   -0.150756
  C     -2.967710    0.306846    0.250988
  C     -4.206693   -0.512931   -0.234665
  F      3.782930    0.581803    1.621217
  F      1.999796    2.052836    0.571894
  F      2.292739    1.233697   -1.445350
  F      1.023400   -1.010548   -0.832189
  F      1.124685   -0.589523    1.318067
  F     -0.568324    1.390359    1.165210
  F     -0.397016    1.550749   -1.009765
  F     -1.378789   -1.399542    0.611277
  F     -1.640576   -0.686157   -1.442579
  F     -3.076837    1.548410   -0.264886
  F     -3.036733    0.382106    1.593164
  F     -4.096502   -1.795192    0.119331
  F     -5.300045   -0.002380    0.336557
  F     -4.344095   -0.437185   -1.557656

 Multiplicity           Mult            ....    2
 Number of Electrons    NEL             ....  191
 Basis Dimension        Dim             ....  744

ORBITAL ENERGIES
----------------
                 SPIN UP ORBITALS
  NO   OCC          E(Eh)            E(eV)
   0   1.0000     -24.744553      -673.3335
   1   1.0000     -24.743575      -673.3069
   2   1.0000     -24.743175      -673.2960
   3   1.0000     -24.742725      -673.2838
   4   1.0000     -24.741628      -673.2539
   5   1.0000     -24.741559      -673.2520
   6   1.0000     -24.741482      -673.2500
   7   1.0000     -24.737510      -673.1419
   8   1.0000     -24.737377      -673.1382
   9   1.0000     -24.729726      -672.9301
  10   1.0000     -24.729457      -672.9227
  11   1.0000     -24.713707      -672.4941
  12   1.0000     -24.712859      -672.4711
  13   1.0000     -24.709173      -672.3708
  14   1.0000     -19.053482      -518.4716
  15   1.0000     -19.051237      -518.4105
  16   1.0000     -10.460727      -284.6509
  17   1.0000     -10.406267      -283.1689
  18   1.0000     -10.406096      -283.1643
  19   1.0000     -10.401583      -283.0415
  20   1.0000     -10.390060      -282.7279
  21   1.0000     -10.376588      -282.3613
  22   1.0000     -10.270899      -279.4854
  23   1.0000     -10.249789      -278.9109
  24   1.0000      -1.353361       -36.8268
  25   1.0000      -1.327729       -36.1293
  26   1.0000      -1.311750       -35.6945
  27   1.0000      -1.305586       -35.5268
  28   1.0000      -1.298527       -35.3347
  29   1.0000      -1.280409       -34.8417
  30   1.0000      -1.266383       -34.4600
  31   1.0000      -1.260062       -34.2880
  32   1.0000      -1.258429       -34.2436
  33   1.0000      -1.251524       -34.0557
  34   1.0000      -1.248371       -33.9699
  35   1.0000      -1.245320       -33.8869
  36   1.0000      -1.239676       -33.7333
  37   1.0000      -1.221227       -33.2313
  38   1.0000      -1.015666       -27.6377
  39   1.0000      -0.930921       -25.3317
  40   1.0000      -0.844813       -22.9885
  41   1.0000      -0.822834       -22.3905
  42   1.0000      -0.797049       -21.6888
  43   1.0000      -0.757558       -20.6142
  44   1.0000      -0.712789       -19.3960
  45   1.0000      -0.686235       -18.6734
  46   1.0000      -0.664034       -18.0693
  47   1.0000      -0.649282       -17.6679
  48   1.0000      -0.644235       -17.5305
  49   1.0000      -0.637530       -17.3481
  50   1.0000      -0.625475       -17.0200
  51   1.0000      -0.622613       -16.9422
  52   1.0000      -0.620201       -16.8765
  53   1.0000      -0.607976       -16.5439
  54   1.0000      -0.604057       -16.4372
  55   1.0000      -0.594891       -16.1878
  56   1.0000      -0.593488       -16.1496
  57   1.0000      -0.583886       -15.8883
  58   1.0000      -0.574419       -15.6307
  59   1.0000      -0.568802       -15.4779
  60   1.0000      -0.544064       -14.8047
  61   1.0000      -0.516329       -14.0500
  62   1.0000      -0.511267       -13.9123
  63   1.0000      -0.506566       -13.7844
  64   1.0000      -0.501383       -13.6433
  65   1.0000      -0.499635       -13.5958
  66   1.0000      -0.498321       -13.5600
  67   1.0000      -0.491819       -13.3831
  68   1.0000      -0.487412       -13.2632
  69   1.0000      -0.485090       -13.2000
  70   1.0000      -0.479156       -13.0385
  71   1.0000      -0.475681       -12.9439
  72   1.0000      -0.472187       -12.8489
  73   1.0000      -0.463213       -12.6047
  74   1.0000      -0.462097       -12.5743
  75   1.0000      -0.458180       -12.4677
  76   1.0000      -0.452530       -12.3140
  77   1.0000      -0.452373       -12.3097
  78   1.0000      -0.448002       -12.1908
  79   1.0000      -0.446196       -12.1416
  80   1.0000      -0.441741       -12.0204
  81   1.0000      -0.441380       -12.0106
  82   1.0000      -0.438925       -11.9438
  83   1.0000      -0.435977       -11.8635
  84   1.0000      -0.430559       -11.7161
  85   1.0000      -0.423082       -11.5126
  86   1.0000      -0.418604       -11.3908
  87   1.0000      -0.406122       -11.0511
  88   1.0000      -0.393000       -10.6941
  89   1.0000      -0.389353       -10.5948
  90   1.0000      -0.378643       -10.3034
  91   1.0000      -0.344383        -9.3711
  92   1.0000      -0.248366        -6.7584
  93   1.0000      -0.242576        -6.6008
  94   1.0000      -0.231428        -6.2975
  95   1.0000      -0.220215        -5.9923
  96   0.0000      -0.000235        -0.0064
  97   0.0000       0.010349         0.2816
  98   0.0000       0.040963         1.1147
  99   0.0000       0.057519         1.5652
 100   0.0000       0.084507         2.2995

                 SPIN DOWN ORBITALS
  NO   OCC          E(Eh)            E(eV)
   0   1.0000     -24.744553      -673.3335
   1   1.0000     -24.743574      -673.3069
   2   1.0000     -24.743176      -673.2960
   3   1.0000     -24.742721      -673.2837
   4   1.0000     -24.741624      -673.2538
   5   1.0000     -24.741558      -673.2520
   6   1.0000     -24.741483      -673.2500
   7   1.0000     -24.737498      -673.1415
   8   1.0000     -24.737377      -673.1382
   9   1.0000     -24.729679      -672.9288
  10   1.0000     -24.729415      -672.9216
  11   1.0000     -24.713276      -672.4824
  12   1.0000     -24.712348      -672.4572
  13   1.0000     -24.705135      -672.2609
  14   1.0000     -19.051266      -518.4113
  15   1.0000     -19.050051      -518.3783
  16   1.0000     -10.460720      -284.6507
  17   1.0000     -10.406232      -283.1680
  18   1.0000     -10.406059      -283.1632
  19   1.0000     -10.401429      -283.0373
  20   1.0000     -10.389289      -282.7069
  21   1.0000     -10.377327      -282.3814
  22   1.0000     -10.257628      -279.1242
  23   1.0000     -10.250861      -278.9401
  24   1.0000      -1.353356       -36.8267
  25   1.0000      -1.327657       -36.1274
  26   1.0000      -1.311627       -35.6912
  27   1.0000      -1.305545       -35.5257
  28   1.0000      -1.298308       -35.3287
  29   1.0000      -1.279117       -34.8065
  30   1.0000      -1.266378       -34.4599
  31   1.0000      -1.260056       -34.2879
  32   1.0000      -1.258397       -34.2427
  33   1.0000      -1.251420       -34.0529
  34   1.0000      -1.248129       -33.9633
  35   1.0000      -1.241179       -33.7742
  36   1.0000      -1.235738       -33.6261
  37   1.0000      -1.219717       -33.1902
  38   1.0000      -1.012718       -27.5575
  39   1.0000      -0.927277       -25.2325
  40   1.0000      -0.844360       -22.9762
  41   1.0000      -0.820355       -22.3230
  42   1.0000      -0.791432       -21.5359
  43   1.0000      -0.751282       -20.4434
  44   1.0000      -0.707850       -19.2616
  45   1.0000      -0.683697       -18.6044
  46   1.0000      -0.658047       -17.9064
  47   1.0000      -0.649139       -17.6640
  48   1.0000      -0.643476       -17.5099
  49   1.0000      -0.637497       -17.3472
  50   1.0000      -0.625081       -17.0093
  51   1.0000      -0.621721       -16.9179
  52   1.0000      -0.619230       -16.8501
  53   1.0000      -0.607551       -16.5323
  54   1.0000      -0.603389       -16.4191
  55   1.0000      -0.593721       -16.1560
  56   1.0000      -0.591399       -16.0928
  57   1.0000      -0.582872       -15.8608
  58   1.0000      -0.573046       -15.5934
  59   1.0000      -0.566000       -15.4016
  60   1.0000      -0.540267       -14.7014
  61   1.0000      -0.516235       -14.0475
  62   1.0000      -0.511188       -13.9101
  63   1.0000      -0.506520       -13.7831
  64   1.0000      -0.500966       -13.6320
  65   1.0000      -0.499554       -13.5935
  66   1.0000      -0.494784       -13.4638
  67   1.0000      -0.488244       -13.2858
  68   1.0000      -0.485048       -13.1988
  69   1.0000      -0.478962       -13.0332
  70   1.0000      -0.475728       -12.9452
  71   1.0000      -0.475339       -12.9346
  72   1.0000      -0.467703       -12.7268
  73   1.0000      -0.462943       -12.5973
  74   1.0000      -0.457071       -12.4375
  75   1.0000      -0.455378       -12.3915
  76   1.0000      -0.452342       -12.3089
  77   1.0000      -0.451994       -12.2994
  78   1.0000      -0.446890       -12.1605
  79   1.0000      -0.445918       -12.1340
  80   1.0000      -0.441635       -12.0175
  81   1.0000      -0.441003       -12.0003
  82   1.0000      -0.437955       -11.9174
  83   1.0000      -0.434332       -11.8188
  84   1.0000      -0.429840       -11.6965
  85   1.0000      -0.422012       -11.4835
  86   1.0000      -0.417351       -11.3567
  87   1.0000      -0.404223       -10.9995
  88   1.0000      -0.391145       -10.6436
  89   1.0000      -0.380125       -10.3437
  90   1.0000      -0.376508       -10.2453
  91   1.0000      -0.341930        -9.3044
  92   1.0000      -0.237027        -6.4498
  93   1.0000      -0.235084        -6.3970
  94   1.0000      -0.227961        -6.2031
  95   0.0000      -0.093268        -2.5379
  96   0.0000       0.002276         0.0619
  97   0.0000       0.011432         0.3111
  98   0.0000       0.042776         1.1640
  99   0.0000       0.061191         1.6651

MULLIKEN ATOMIC CHARGES AND SPIN POPULATIONS
--------------------------------------------
   0 C :    0.192673   -0.056942
   1 O :   -0.495785    0.082904
   2 O :   -0.505286    0.046972
   3 C :    0.058566    0.802702
   4 C :    0.424560   -0.008857
   5 C :    0.289815    0.034645
   6 C :    0.334639    0.005643
   7 C :    0.312290    0.002439
   8 C :    0.325367    0.000463
   9 C :    0.474424    0.000242
  10 F :   -0.191690    0.073097
  11 F :   -0.202765    0.007170
  12 F :   -0.185030    0.007604
  13 F :   -0.172507    0.001045
  14 F :   -0.184985    0.000336
  15 F :   -0.172731    0.000250
  16 F :   -0.171853    0.000006
  17 F :   -0.169940    0.000084
  18 F :   -0.168851    0.000096
  19 F :   -0.166851    0.000007
  20 F :   -0.163344    0.000025
  21 F :   -0.155025   -0.000005
  22 F :   -0.153081    0.000072
  23 F :   -0.152610    0.000001
Sum of atomic charges         :   -1.0000000

LOEWDIN ATOMIC CHARGES AND SPIN POPULATIONS
-------------------------------------------
   0 C :   -0.714273    0.033095
   1 O :   -0.070625    0.071977
   2 O :   -0.077191    0.039914
   3 C :   -0.182158    0.625003
   4 C :   -0.471625    0.072353
   5 C :   -0.450999    0.026825
   6 C :   -0.455638    0.007088
   7 C :   -0.456850    0.002250
   8 C :   -0.463446    0.000724
   9 C :   -0.664398    0.000202
  10 F :    0.195986    0.099535
  11 F :    0.173004    0.008226
  12 F :    0.198198    0.009791
  13 F :    0.222054    0.001114
  14 F :    0.208488    0.001327
  15 F :    0.219421    0.000357
  16 F :    0.220270   -0.000001
  17 F :    0.223073   -0.000011
  18 F :    0.223626    0.000119
  19 F :    0.222075   -0.000005
  20 F :    0.223866    0.000028
  21 F :    0.225330   -0.000005
  22 F :    0.224662    0.000090
  23 F :    0.227150    0.000005

  Mayer bond orders larger than 0.100000
B(  0-C ,  1-O ) :   1.8372 B(  0-C ,  2-O ) :   1.8587 B(  0-C ,  3-C ) :   0.9528
B(  3-C ,  4-C ) :   0.9666 B(  3-C , 10-F ) :   1.0430 B(  4-C ,  5-C ) :   0.9224
B(  4-C , 11-F ) :   1.0441 B(  4-C , 12-F ) :   1.0922 B(  5-C ,  6-C ) :   0.9245
B(  5-C , 13-F ) :   1.0935 B(  5-C , 14-F ) :   1.0621 B(  6-C ,  7-C ) :   0.9272
B(  6-C , 15-F ) :   1.0772 B(  6-C , 16-F ) :   1.0819 B(  7-C ,  8-C ) :   0.9235
B(  7-C , 17-F ) :   1.0797 B(  7-C , 18-F ) :   1.0868 B(  8-C ,  9-C ) :   0.9691
B(  8-C , 19-F ) :   1.0862 B(  8-C , 20-F ) :   1.0956 B(  9-C , 21-F ) :   1.1460
B(  9-C , 22-F ) :   1.1467 B(  9-C , 23-F ) :   1.1566

Dispersion correction           -0.042347664
FINAL SINGLE POINT ENERGY     -1853.283795400811

DIPOLE MOMENT
-------------
                                X             Y             Z
Electronic contribution:    -18.48198       3.26463       1.80761
Nuclear contribution   :     10.05855      -1.70478      -0.97878
                        -----------------------------------------
Total Dipole Moment    :     -8.42343       1.55985       0.82883
                        -----------------------------------------
Magnitude (a.u.)       :      8.60664
Magnitude (Debye)      :     21.87634

Rotational constants in cm-1:     0.020763     0.004182     0.004060
Rotational constants in MHz :   622.446184   125.380239   121.723277

                             ****ORCA TERMINATED NORMALLY****
TOTAL RUN TIME: 0 days 1 hours 18 minutes 40 seconds 711 msec
