                         Program Version 6.0.1  -  RELEASE   -
|  1> !r2scanh def2-TZVP opt d3 TightSCF SlowConv defgrid2
|  2>
|  3> %pal
|  4> nprocs 20
|  5> end
|  6>
|  7> %scf
|  8> MaxIter 1500
|  9> end
| 10>
| 11> %maxcore 8000 #verificar
| 12>
| 13> !CPCM
| 14> %cpcm smd true
| 15> SMDsolvent "ACETONITRILE"
| 16> end
| 17>
| 18> * xyz -1 2
| 19> 6        4.790427000     -0.033865800     -0.529943200
| 20> 8        5.449345000     -1.206924000     -0.894594600
| 21> 8        4.978223000      1.323071000     -0.737377200
| 22> 6        3.506687600     -0.338741600      0.376153800
| 23> 6        2.222300000      0.400524800     -0.110681600
| 24> 6        0.900506800     -0.386389800      0.175703000
| 25> 6       -0.395261200      0.487294000      0.065549000
| 26> 6       -1.705693600     -0.364773800     -0.068373600
| 27> 6       -3.005136200      0.445344800      0.258164000
| 28> 6       -4.319880200     -0.214526000     -0.270540800
| 29> 9        3.211587400     -1.692050400      0.412735200
| 30> 9        3.741061800      0.055285800      1.689948800
| 31> 9        2.125696800      1.616867800      0.483236600
| 32> 9        2.314152400      0.589704000     -1.455769200
| 33> 9        0.958350600     -0.884509000      1.435093400
| 34> 9       -0.498373400      1.260265600      1.173340200
| 35> 9       -0.299075000      1.289512600     -1.020910800
| 36> 9       -1.641790400     -1.418189000      0.779523800
| 37> 9       -1.792381400     -0.831391600     -1.336863600
| 38> 9       -2.918792200      1.679227200     -0.295171200
| 39> 9       -3.119771000      0.573779800      1.598579800
| 40> 9       -4.383115600     -1.504377600      0.089127600
| 41> 9       -5.365669800      0.430528600      0.260394200
| 42> 9       -4.396020400     -0.128550600     -1.602941800
| 43> **                         ****END OF INPUT****
 Total Charge           Charge          ....   -1
 Multiplicity           Mult            ....    2
 Number of Electrons    NEL             ....  191
Dispersion correction           -0.007866995
FINAL SINGLE POINT ENERGY     -1853.048097673636
Dispersion correction             ... done (  0.0 sec)
Dispersion correction           -0.007924623
FINAL SINGLE POINT ENERGY     -1853.096640481204
Dispersion correction             ... done (  0.0 sec)
Dispersion correction           -0.007955202
FINAL SINGLE POINT ENERGY     -1853.106201690006
Dispersion correction             ... done (  0.1 sec)
FINAL SINGLE POINT ENERGY     -1853.111381815424
FINAL SINGLE POINT ENERGY     -1853.109662549718
FINAL SINGLE POINT ENERGY     -1853.113799351852
FINAL SINGLE POINT ENERGY     -1853.114745437656
FINAL SINGLE POINT ENERGY     -1853.115349030000
FINAL SINGLE POINT ENERGY     -1853.115582525134
FINAL SINGLE POINT ENERGY     -1853.115805042301
FINAL SINGLE POINT ENERGY     -1853.116590535448
FINAL SINGLE POINT ENERGY     -1853.116711851277
FINAL SINGLE POINT ENERGY     -1853.116841288293
FINAL SINGLE POINT ENERGY     -1853.116803993862
FINAL SINGLE POINT ENERGY     -1853.116883287589
FINAL SINGLE POINT ENERGY     -1853.116895981182
FINAL SINGLE POINT ENERGY     -1853.116902549374
Dispersion correction             ... done (  0.0 sec)
Dispersion correction           -0.008356106
FINAL SINGLE POINT ENERGY     -1853.116904690155
Dispersion correction             ... done (  0.0 sec)
Dispersion correction           -0.008353608
FINAL SINGLE POINT ENERGY     -1853.116905507301
Dispersion correction             ... done (  0.0 sec)
                    ***********************HURRAY********************

CARTESIAN COORDINATES (ANGSTROEM)
---------------------------------
  C      3.803972   -0.788940   -1.071484
  O      3.381375   -1.499270   -1.989666
  O      4.875821   -0.188820   -0.915906
  C      2.804520   -0.585035    0.126343
  C      2.173597    0.829404    0.154346
  C      0.981188    0.947333    1.048831
  C     -0.439283    1.243751    0.686360
  C     -1.242380   -0.001930    0.208946
  C     -2.782914    0.207788    0.154981
  C     -3.525994   -0.827961   -0.731468
  F      1.763521   -1.464229    0.081446
  F      3.423864   -0.787289    1.320640
  F      3.117465    1.717047    0.559099
  F      1.814304    1.153147   -1.109064
  F      1.156880    0.504119    2.281339
  F     -1.067933    1.722854    1.785603
  F     -0.490406    2.175365   -0.281852
  F     -0.992289   -1.011678    1.059281
  F     -0.795549   -0.345781   -1.010667
  F     -3.066027    1.428983   -0.323775
  F     -3.273255    0.106727    1.398144
  F     -3.139556   -2.062240   -0.425937
  F     -4.832024   -0.721820   -0.513970
  F     -3.291518   -0.604410   -2.017187

 Multiplicity           Mult            ....    2
 Number of Electrons    NEL             ....  191
 Basis Dimension        Dim             ....  744

ORBITAL ENERGIES
----------------
                 SPIN UP ORBITALS
  NO   OCC          E(Eh)            E(eV)
   0   1.0000     -24.733866      -673.0427
   1   1.0000     -24.731282      -672.9724
   2   1.0000     -24.730086      -672.9399
   3   1.0000     -24.729514      -672.9243
   4   1.0000     -24.729302      -672.9185
   5   1.0000     -24.729039      -672.9113
   6   1.0000     -24.728010      -672.8834
   7   1.0000     -24.727449      -672.8681
   8   1.0000     -24.720626      -672.6824
   9   1.0000     -24.720466      -672.6781
  10   1.0000     -24.707942      -672.3373
  11   1.0000     -24.700575      -672.1368
  12   1.0000     -24.685537      -671.7276
  13   1.0000     -24.685509      -671.7268
  14   1.0000     -19.048695      -518.3413
  15   1.0000     -19.046989      -518.2949
  16   1.0000     -10.438486      -284.0456
  17   1.0000     -10.382851      -282.5317
  18   1.0000     -10.380490      -282.4675
  19   1.0000     -10.380182      -282.4591
  20   1.0000     -10.357765      -281.8491
  21   1.0000     -10.319853      -280.8175
  22   1.0000     -10.298316      -280.2314
  23   1.0000     -10.233071      -278.4560
  24   1.0000      -1.360252       -37.0143
  25   1.0000      -1.330352       -36.2007
  26   1.0000      -1.313700       -35.7476
  27   1.0000      -1.307824       -35.5877
  28   1.0000      -1.297225       -35.2993
  29   1.0000      -1.287576       -35.0367
  30   1.0000      -1.271000       -34.5857
  31   1.0000      -1.267706       -34.4960
  32   1.0000      -1.265556       -34.4375
  33   1.0000      -1.261776       -34.3347
  34   1.0000      -1.254252       -34.1299
  35   1.0000      -1.248177       -33.9646
  36   1.0000      -1.233103       -33.5544
  37   1.0000      -1.209666       -32.9167
  38   1.0000      -1.028467       -27.9860
  39   1.0000      -0.943957       -25.6864
  40   1.0000      -0.848676       -23.0937
  41   1.0000      -0.826398       -22.4874
  42   1.0000      -0.786923       -21.4133
  43   1.0000      -0.749710       -20.4007
  44   1.0000      -0.705248       -19.1908
  45   1.0000      -0.681480       -18.5440
  46   1.0000      -0.652739       -17.7619
  47   1.0000      -0.636316       -17.3150
  48   1.0000      -0.633738       -17.2449
  49   1.0000      -0.626515       -17.0483
  50   1.0000      -0.612722       -16.6730
  51   1.0000      -0.606825       -16.5125
  52   1.0000      -0.605749       -16.4833
  53   1.0000      -0.595965       -16.2170
  54   1.0000      -0.591369       -16.0920
  55   1.0000      -0.580499       -15.7962
  56   1.0000      -0.578360       -15.7380
  57   1.0000      -0.567744       -15.4491
  58   1.0000      -0.566738       -15.4217
  59   1.0000      -0.548881       -14.9358
  60   1.0000      -0.538447       -14.6519
  61   1.0000      -0.512808       -13.9542
  62   1.0000      -0.499417       -13.5898
  63   1.0000      -0.494499       -13.4560
  64   1.0000      -0.488900       -13.3036
  65   1.0000      -0.484872       -13.1940
  66   1.0000      -0.480912       -13.0863
  67   1.0000      -0.473088       -12.8734
  68   1.0000      -0.469541       -12.7769
  69   1.0000      -0.465366       -12.6633
  70   1.0000      -0.458640       -12.4802
  71   1.0000      -0.455748       -12.4015
  72   1.0000      -0.453063       -12.3285
  73   1.0000      -0.448767       -12.2116
  74   1.0000      -0.448002       -12.1908
  75   1.0000      -0.445538       -12.1237
  76   1.0000      -0.437119       -11.8946
  77   1.0000      -0.436758       -11.8848
  78   1.0000      -0.433324       -11.7914
  79   1.0000      -0.428756       -11.6671
  80   1.0000      -0.426927       -11.6173
  81   1.0000      -0.425415       -11.5761
  82   1.0000      -0.424708       -11.5569
  83   1.0000      -0.415358       -11.3025
  84   1.0000      -0.411253       -11.1908
  85   1.0000      -0.400693       -10.9034
  86   1.0000      -0.396514       -10.7897
  87   1.0000      -0.390266       -10.6197
  88   1.0000      -0.387314       -10.5393
  89   1.0000      -0.375620       -10.2211
  90   1.0000      -0.356036        -9.6882
  91   1.0000      -0.336322        -9.1518
  92   1.0000      -0.259471        -7.0606
  93   1.0000      -0.240996        -6.5578
  94   1.0000      -0.223863        -6.0916
  95   1.0000      -0.222089        -6.0434
  96   0.0000      -0.004406        -0.1199
  97   0.0000       0.018320         0.4985
  98   0.0000       0.021920         0.5965
  99   0.0000       0.049707         1.3526
 100   0.0000       0.076001         2.0681

                 SPIN DOWN ORBITALS
  NO   OCC          E(Eh)            E(eV)
   0   1.0000     -24.731288      -672.9726
   1   1.0000     -24.730084      -672.9398
   2   1.0000     -24.729461      -672.9228
   3   1.0000     -24.729311      -672.9188
   4   1.0000     -24.729023      -672.9109
   5   1.0000     -24.728895      -672.9074
   6   1.0000     -24.727998      -672.8830
   7   1.0000     -24.727441      -672.8679
   8   1.0000     -24.720036      -672.6664
   9   1.0000     -24.719987      -672.6651
  10   1.0000     -24.707882      -672.3357
  11   1.0000     -24.699260      -672.1010
  12   1.0000     -24.685443      -671.7251
  13   1.0000     -24.685374      -671.7232
  14   1.0000     -19.048418      -518.3338
  15   1.0000     -19.046939      -518.2936
  16   1.0000     -10.438416      -284.0437
  17   1.0000     -10.382681      -282.5271
  18   1.0000     -10.381299      -282.4895
  19   1.0000     -10.379628      -282.4440
  20   1.0000     -10.358767      -281.8764
  21   1.0000     -10.319234      -280.8006
  22   1.0000     -10.281501      -279.7739
  23   1.0000     -10.233030      -278.4549
  24   1.0000      -1.360195       -37.0128
  25   1.0000      -1.329863       -36.1874
  26   1.0000      -1.313246       -35.7352
  27   1.0000      -1.306360       -35.5479
  28   1.0000      -1.295063       -35.2404
  29   1.0000      -1.281056       -34.8593
  30   1.0000      -1.270922       -34.5835
  31   1.0000      -1.267256       -34.4838
  32   1.0000      -1.265495       -34.4359
  33   1.0000      -1.261550       -34.3285
  34   1.0000      -1.254140       -34.1269
  35   1.0000      -1.247065       -33.9344
  36   1.0000      -1.231468       -33.5100
  37   1.0000      -1.209385       -32.9090
  38   1.0000      -1.028210       -27.9790
  39   1.0000      -0.943637       -25.6777
  40   1.0000      -0.839916       -22.8553
  41   1.0000      -0.815783       -22.1986
  42   1.0000      -0.784999       -21.3609
  43   1.0000      -0.742982       -20.2176
  44   1.0000      -0.700632       -19.0652
  45   1.0000      -0.680545       -18.5186
  46   1.0000      -0.648363       -17.6428
  47   1.0000      -0.634710       -17.2713
  48   1.0000      -0.632170       -17.2022
  49   1.0000      -0.626316       -17.0429
  50   1.0000      -0.611278       -16.6337
  51   1.0000      -0.605621       -16.4798
  52   1.0000      -0.602145       -16.3852
  53   1.0000      -0.594510       -16.1774
  54   1.0000      -0.589976       -16.0541
  55   1.0000      -0.577885       -15.7251
  56   1.0000      -0.576603       -15.6902
  57   1.0000      -0.567092       -15.4314
  58   1.0000      -0.564866       -15.3708
  59   1.0000      -0.546936       -14.8829
  60   1.0000      -0.537284       -14.6202
  61   1.0000      -0.499398       -13.5893
  62   1.0000      -0.494898       -13.4669
  63   1.0000      -0.489644       -13.3239
  64   1.0000      -0.485402       -13.2085
  65   1.0000      -0.483021       -13.1437
  66   1.0000      -0.480474       -13.0744
  67   1.0000      -0.471056       -12.8181
  68   1.0000      -0.468337       -12.7441
  69   1.0000      -0.463539       -12.6135
  70   1.0000      -0.456953       -12.4343
  71   1.0000      -0.455219       -12.3871
  72   1.0000      -0.452267       -12.3068
  73   1.0000      -0.447945       -12.1892
  74   1.0000      -0.445467       -12.1218
  75   1.0000      -0.443674       -12.0730
  76   1.0000      -0.436664       -11.8822
  77   1.0000      -0.435350       -11.8465
  78   1.0000      -0.433038       -11.7836
  79   1.0000      -0.427922       -11.6444
  80   1.0000      -0.425628       -11.5819
  81   1.0000      -0.424754       -11.5581
  82   1.0000      -0.423972       -11.5369
  83   1.0000      -0.414560       -11.2807
  84   1.0000      -0.409734       -11.1494
  85   1.0000      -0.399135       -10.8610
  86   1.0000      -0.396110       -10.7787
  87   1.0000      -0.388773       -10.5791
  88   1.0000      -0.386231       -10.5099
  89   1.0000      -0.375283       -10.2120
  90   1.0000      -0.351953        -9.5771
  91   1.0000      -0.333414        -9.0726
  92   1.0000      -0.240736        -6.5508
  93   1.0000      -0.224475        -6.1083
  94   1.0000      -0.222916        -6.0658
  95   0.0000      -0.116315        -3.1651
  96   0.0000      -0.002147        -0.0584
  97   0.0000       0.022679         0.6171
  98   0.0000       0.025318         0.6889
  99   0.0000       0.053204         1.4478

MULLIKEN ATOMIC CHARGES AND SPIN POPULATIONS
--------------------------------------------
   0 C :    0.212727   -0.000460
   1 O :   -0.511233    0.008306
   2 O :   -0.522738    0.001773
   3 C :    0.351617    0.017635
   4 C :    0.341901   -0.020347
   5 C :    0.084386    0.843195
   6 C :    0.409902   -0.023419
   7 C :    0.271241    0.033378
   8 C :    0.335260    0.005570
   9 C :    0.472508    0.002808
  10 F :   -0.211052    0.000745
  11 F :   -0.213933    0.002992
  12 F :   -0.187077    0.021931
  13 F :   -0.192966    0.000584
  14 F :   -0.154677    0.087150
  15 F :   -0.176198    0.009639
  16 F :   -0.169564    0.006813
  17 F :   -0.172767    0.000273
  18 F :   -0.174317    0.000333
  19 F :   -0.164638   -0.000113
  20 F :   -0.162195    0.000287
  21 F :   -0.156844   -0.000064
  22 F :   -0.154659    0.000945
  23 F :   -0.154683    0.000049
Sum of atomic charges         :   -1.0000000

LOEWDIN ATOMIC CHARGES AND SPIN POPULATIONS
-------------------------------------------
   0 C :   -0.696059    0.002649
   1 O :   -0.049453    0.007444
   2 O :   -0.054334    0.001455
   3 C :   -0.443919    0.018219
   4 C :   -0.491584    0.053155
   5 C :   -0.168791    0.661143
   6 C :   -0.493221    0.065200
   7 C :   -0.472266    0.027344
   8 C :   -0.478209    0.006981
   9 C :   -0.679261    0.002056
  10 F :    0.166344    0.001751
  11 F :    0.164485    0.003471
  12 F :    0.193143    0.023391
  13 F :    0.207655    0.001473
  14 F :    0.254243    0.103624
  15 F :    0.211974    0.009980
  16 F :    0.222386    0.008216
  17 F :    0.228390    0.000577
  18 F :    0.228614    0.000678
  19 F :    0.228630   -0.000127
  20 F :    0.228921    0.000329
  21 F :    0.230080   -0.000092
  22 F :    0.229969    0.001018
  23 F :    0.232260    0.000062

  Mayer bond orders larger than 0.100000
B(  0-C ,  1-O ) :   1.8483 B(  0-C ,  2-O ) :   1.8301 B(  0-C ,  3-C ) :   0.8291
B(  3-C ,  4-C ) :   0.9130 B(  3-C , 10-F ) :   1.0143 B(  3-C , 11-F ) :   1.0239
B(  4-C ,  5-C ) :   1.0239 B(  4-C , 12-F ) :   1.0640 B(  4-C , 13-F ) :   1.0561
B(  5-C ,  6-C ) :   0.9945 B(  5-C , 14-F ) :   1.0997 B(  6-C ,  7-C ) :   0.9305
B(  6-C , 15-F ) :   1.0572 B(  6-C , 16-F ) :   1.0928 B(  7-C ,  8-C ) :   0.9161
B(  7-C , 17-F ) :   1.0594 B(  7-C , 18-F ) :   1.0678 B(  8-C ,  9-C ) :   0.9518
B(  8-C , 19-F ) :   1.0864 B(  8-C , 20-F ) :   1.0968 B(  9-C , 21-F ) :   1.1289
B(  9-C , 22-F ) :   1.1326 B(  9-C , 23-F ) :   1.1417

Dispersion correction           -0.008352909
FINAL SINGLE POINT ENERGY     -1853.116905788082

DIPOLE MOMENT
-------------

Method             : SCF
Type of density    : Electron Density
Multiplicity       :   2
Irrep              :   0
Energy             : -1853.1085528790122225 Eh
Relativity type    :
Basis              : AO
                                X                 Y                 Z
Electronic contribution:    -15.153294089       2.497438370       4.376947214
Nuclear contribution   :      8.086943770      -1.055797656      -2.190338032
                        -----------------------------------------
Total Dipole Moment    :     -7.066350319       1.441640714       2.186609182
                        -----------------------------------------
Magnitude (a.u.)       :      7.536106057
Magnitude (Debye)      :     19.155259302

Rotational constants in cm-1:             0.016206             0.005024             0.004592
Rotational constants in MHz :           485.835284           150.614621           137.658898

                             ****ORCA TERMINATED NORMALLY****
TOTAL RUN TIME: 0 days 0 hours 48 minutes 29 seconds 195 msec
