                         Program Version 6.0.1  -  RELEASE   -
|  1> !B3LYP def2-TZVP opt d3 TightSCF SlowConv defgrid2
|  2>
|  3> %pal
|  4> nprocs 20
|  5> end
|  6>
|  7> %scf
|  8> MaxIter 1500
|  9> end
| 10>
| 11> %maxcore 8000
| 12>
| 13> !CPCM
| 14> %cpcm smd true
| 15> SMDsolvent "ACETONITRILE"
| 16> end
| 17>
| 18> * xyz -1 2
| 19> 6        4.870906397      0.061888661     -0.237292510
| 20> 8        5.271940174     -0.267476354     -1.399541711
| 21> 8        5.203187478      1.337876105      0.278273556
| 22> 1        5.668158999      1.786076840     -0.446718784
| 23> 6        3.577190606     -0.417061850      0.325730837
| 24> 6        2.245024540      0.218842756     -0.204004451
| 25> 6        0.891320286     -0.467997151      0.173792354
| 26> 6       -0.382269188      0.419918005     -0.023365189
| 27> 6       -1.728626502     -0.380951428     -0.034067234
| 28> 6       -2.989669377      0.508649937      0.220799218
| 29> 6       -4.341700350     -0.148256685     -0.200457220
| 30> 9        3.454956342     -1.770907039      0.081229207
| 31> 9        3.545488518     -0.229037896      1.697273539
| 32> 9        2.190934323      1.506680122      0.238734203
| 33> 9        2.305906375      0.246046282     -1.564120563
| 34> 9        0.746279290     -1.583774915     -0.584187158
| 35> 9        0.928008200     -0.837544543      1.477151553
| 36> 9       -0.436766777      1.327546928      0.978944699
| 37> 9       -0.285373169      1.079994905     -1.200191876
| 38> 9       -1.690728565     -1.332385248      0.925305417
| 39> 9       -1.863434049     -0.985412705     -1.235071462
| 40> 9       -2.875331257      1.665488073     -0.468927793
| 41> 9       -3.065592445      0.790736220      1.537304067
| 42> 9       -4.452300700     -1.378234719      0.311637220
| 43> 9       -5.347318642      0.600905856      0.263788886
| 44> 9       -4.445219507     -0.217868155     -1.529143803
| 45> *
| 46>
| 47>                          ****END OF INPUT****
 Total Charge           Charge          ....   -1
 Multiplicity           Mult            ....    2
 Number of Electrons    NEL             ....  201
Dispersion correction           -0.044891948
FINAL SINGLE POINT ENERGY     -1953.719067490470
Dispersion correction             ... done (  0.0 sec)
Dispersion correction           -0.044893743
FINAL SINGLE POINT ENERGY     -1953.719245053921
Dispersion correction             ... done (  0.0 sec)
Dispersion correction           -0.044883989
FINAL SINGLE POINT ENERGY     -1953.719278356255
Dispersion correction             ... done (  0.0 sec)
Dispersion correction           -0.044874219
FINAL SINGLE POINT ENERGY     -1953.719283201718
Dispersion correction             ... done (  0.0 sec)
Dispersion correction           -0.044869222
FINAL SINGLE POINT ENERGY     -1953.719285280840
Dispersion correction             ... done (  0.0 sec)
                    ***********************HURRAY********************

CARTESIAN COORDINATES (ANGSTROEM)
---------------------------------
  C      4.874683    0.060088   -0.249909
  O      5.251119   -0.220937   -1.422788
  O      5.229338    1.308589    0.319938
  H      5.679260    1.781887   -0.396983
  C      3.585020   -0.430231    0.312171
  C      2.249923    0.224047   -0.197733
  C      0.891316   -0.461624    0.176534
  C     -0.381951    0.430294   -0.025031
  C     -1.730211   -0.373211   -0.043983
  C     -2.994787    0.517715    0.196557
  C     -4.349278   -0.164765   -0.182434
  F      3.449506   -1.777749    0.033509
  F      3.554115   -0.281553    1.689018
  F      2.206340    1.503986    0.263679
  F      2.300331    0.270848   -1.556032
  F      0.748579   -1.575487   -0.581171
  F      0.921184   -0.832266    1.477874
  F     -0.436506    1.335312    0.976204
  F     -0.280105    1.092915   -1.197568
  F     -1.700476   -1.318486    0.918524
  F     -1.852499   -0.982273   -1.241386
  F     -2.895307    1.649954   -0.529781
  F     -3.058069    0.841736    1.501819
  F     -4.450315   -1.365873    0.392047
  F     -5.351121    0.603966    0.252496
  F     -4.465119   -0.303143   -1.502696

 Multiplicity           Mult            ....    2
 Number of Electrons    NEL             ....  201
 Basis Dimension        Dim             ....  781

ORBITAL ENERGIES
----------------
                 SPIN UP ORBITALS
  NO   OCC          E(Eh)            E(eV)
   0   1.0000     -24.743963      -673.3175
   1   1.0000     -24.742919      -673.2891
   2   1.0000     -24.742059      -673.2656
   3   1.0000     -24.741911      -673.2616
   4   1.0000     -24.740505      -673.2234
   5   1.0000     -24.740106      -673.2125
   6   1.0000     -24.739649      -673.2001
   7   1.0000     -24.735386      -673.0841
   8   1.0000     -24.734488      -673.0596
   9   1.0000     -24.726885      -672.8528
  10   1.0000     -24.725042      -672.8026
  11   1.0000     -24.712301      -672.4559
  12   1.0000     -24.709713      -672.3855
  13   1.0000     -24.686255      -671.7472
  14   1.0000     -24.683711      -671.6779
  15   1.0000     -19.113931      -520.1165
  16   1.0000     -19.051828      -518.4266
  17   1.0000     -10.459973      -284.6303
  18   1.0000     -10.405053      -283.1359
  19   1.0000     -10.404228      -283.1134
  20   1.0000     -10.398168      -282.9485
  21   1.0000     -10.386812      -282.6395
  22   1.0000     -10.366243      -282.0798
  23   1.0000     -10.336652      -281.2746
  24   1.0000     -10.225032      -278.2373
  25   1.0000      -1.352436       -36.8017
  26   1.0000      -1.325219       -36.0610
  27   1.0000      -1.309555       -35.6348
  28   1.0000      -1.303523       -35.4707
  29   1.0000      -1.294778       -35.2327
  30   1.0000      -1.278066       -34.7779
  31   1.0000      -1.265233       -34.4287
  32   1.0000      -1.259229       -34.2654
  33   1.0000      -1.256749       -34.1979
  34   1.0000      -1.249714       -34.0064
  35   1.0000      -1.245955       -33.9042
  36   1.0000      -1.243874       -33.8475
  37   1.0000      -1.236869       -33.6569
  38   1.0000      -1.220803       -33.2197
  39   1.0000      -1.191296       -32.4168
  40   1.0000      -1.029201       -28.0060
  41   1.0000      -0.942901       -25.6576
  42   1.0000      -0.842432       -22.9238
  43   1.0000      -0.817629       -22.2488
  44   1.0000      -0.787787       -21.4368
  45   1.0000      -0.754934       -20.5428
  46   1.0000      -0.718005       -19.5379
  47   1.0000      -0.689641       -18.7661
  48   1.0000      -0.668760       -18.1979
  49   1.0000      -0.647454       -17.6181
  50   1.0000      -0.643030       -17.4977
  51   1.0000      -0.636443       -17.3185
  52   1.0000      -0.625213       -17.0129
  53   1.0000      -0.620258       -16.8781
  54   1.0000      -0.619382       -16.8543
  55   1.0000      -0.609533       -16.5862
  56   1.0000      -0.604774       -16.4567
  57   1.0000      -0.597097       -16.2478
  58   1.0000      -0.590310       -16.0631
  59   1.0000      -0.584013       -15.8918
  60   1.0000      -0.579551       -15.7704
  61   1.0000      -0.568605       -15.4725
  62   1.0000      -0.564912       -15.3720
  63   1.0000      -0.540000       -14.6941
  64   1.0000      -0.514776       -14.0078
  65   1.0000      -0.509935       -13.8760
  66   1.0000      -0.505169       -13.7463
  67   1.0000      -0.500425       -13.6173
  68   1.0000      -0.498425       -13.5628
  69   1.0000      -0.497920       -13.5491
  70   1.0000      -0.490682       -13.3521
  71   1.0000      -0.486318       -13.2334
  72   1.0000      -0.483527       -13.1574
  73   1.0000      -0.477528       -12.9942
  74   1.0000      -0.474728       -12.9180
  75   1.0000      -0.471045       -12.8178
  76   1.0000      -0.462991       -12.5986
  77   1.0000      -0.462028       -12.5724
  78   1.0000      -0.458296       -12.4709
  79   1.0000      -0.451484       -12.2855
  80   1.0000      -0.450353       -12.2547
  81   1.0000      -0.447874       -12.1873
  82   1.0000      -0.444400       -12.0928
  83   1.0000      -0.441091       -12.0027
  84   1.0000      -0.440483       -11.9861
  85   1.0000      -0.439604       -11.9622
  86   1.0000      -0.437040       -11.8925
  87   1.0000      -0.429902       -11.6982
  88   1.0000      -0.425490       -11.5782
  89   1.0000      -0.420005       -11.4289
  90   1.0000      -0.415895       -11.3171
  91   1.0000      -0.408805       -11.1242
  92   1.0000      -0.401627       -10.9288
  93   1.0000      -0.394678       -10.7397
  94   1.0000      -0.386456       -10.5160
  95   1.0000      -0.367596       -10.0028
  96   1.0000      -0.348591        -9.4856
  97   1.0000      -0.329832        -8.9752
  98   1.0000      -0.285456        -7.7676
  99   1.0000      -0.237140        -6.4529
 100   1.0000      -0.102012        -2.7759
 101   0.0000      -0.002643        -0.0719
 102   0.0000       0.011736         0.3194
 103   0.0000       0.044391         1.2079
 104   0.0000       0.056438         1.5358
 105   0.0000       0.074357         2.0234

                 SPIN DOWN ORBITALS
  NO   OCC          E(Eh)            E(eV)
   0   1.0000     -24.743962      -673.3174
   1   1.0000     -24.742918      -673.2890
   2   1.0000     -24.742042      -673.2652
   3   1.0000     -24.741901      -673.2613
   4   1.0000     -24.740502      -673.2233
   5   1.0000     -24.740097      -673.2123
   6   1.0000     -24.739625      -673.1994
   7   1.0000     -24.735368      -673.0836
   8   1.0000     -24.734442      -673.0584
   9   1.0000     -24.726847      -672.8517
  10   1.0000     -24.724966      -672.8005
  11   1.0000     -24.712238      -672.4542
  12   1.0000     -24.709619      -672.3829
  13   1.0000     -24.685731      -671.7329
  14   1.0000     -24.683111      -671.6616
  15   1.0000     -19.111848      -520.0598
  16   1.0000     -19.044349      -518.2231
  17   1.0000     -10.459949      -284.6297
  18   1.0000     -10.405004      -283.1346
  19   1.0000     -10.404106      -283.1101
  20   1.0000     -10.397920      -282.9418
  21   1.0000     -10.386197      -282.6228
  22   1.0000     -10.364993      -282.0458
  23   1.0000     -10.335741      -281.2498
  24   1.0000     -10.217297      -278.0268
  25   1.0000      -1.352414       -36.8011
  26   1.0000      -1.325102       -36.0579
  27   1.0000      -1.309433       -35.6315
  28   1.0000      -1.303441       -35.4684
  29   1.0000      -1.294560       -35.2268
  30   1.0000      -1.277709       -34.7682
  31   1.0000      -1.265216       -34.4283
  32   1.0000      -1.259204       -34.2647
  33   1.0000      -1.256706       -34.1967
  34   1.0000      -1.249665       -34.0051
  35   1.0000      -1.245809       -33.9002
  36   1.0000      -1.242507       -33.8103
  37   1.0000      -1.236689       -33.6520
  38   1.0000      -1.220581       -33.2137
  39   1.0000      -1.190034       -32.3825
  40   1.0000      -1.021581       -27.7986
  41   1.0000      -0.930984       -25.3334
  42   1.0000      -0.841801       -22.9066
  43   1.0000      -0.816058       -22.2061
  44   1.0000      -0.785155       -21.3652
  45   1.0000      -0.751461       -20.4483
  46   1.0000      -0.715000       -19.4561
  47   1.0000      -0.688073       -18.7234
  48   1.0000      -0.666638       -18.1401
  49   1.0000      -0.647334       -17.6149
  50   1.0000      -0.642669       -17.4879
  51   1.0000      -0.636405       -17.3175
  52   1.0000      -0.624088       -16.9823
  53   1.0000      -0.619759       -16.8645
  54   1.0000      -0.618139       -16.8204
  55   1.0000      -0.606625       -16.5071
  56   1.0000      -0.604591       -16.4517
  57   1.0000      -0.595260       -16.1978
  58   1.0000      -0.590070       -16.0566
  59   1.0000      -0.580638       -15.8000
  60   1.0000      -0.579126       -15.7588
  61   1.0000      -0.567521       -15.4430
  62   1.0000      -0.562221       -15.2988
  63   1.0000      -0.538587       -14.6557
  64   1.0000      -0.514718       -14.0062
  65   1.0000      -0.509891       -13.8748
  66   1.0000      -0.505113       -13.7448
  67   1.0000      -0.500023       -13.6063
  68   1.0000      -0.498202       -13.5568
  69   1.0000      -0.496059       -13.4985
  70   1.0000      -0.489949       -13.3322
  71   1.0000      -0.485748       -13.2179
  72   1.0000      -0.483404       -13.1541
  73   1.0000      -0.477400       -12.9907
  74   1.0000      -0.474506       -12.9120
  75   1.0000      -0.470789       -12.8108
  76   1.0000      -0.462782       -12.5929
  77   1.0000      -0.461910       -12.5692
  78   1.0000      -0.457361       -12.4454
  79   1.0000      -0.451461       -12.2849
  80   1.0000      -0.450230       -12.2514
  81   1.0000      -0.447345       -12.1729
  82   1.0000      -0.444265       -12.0891
  83   1.0000      -0.441012       -12.0006
  84   1.0000      -0.440009       -11.9733
  85   1.0000      -0.436804       -11.8861
  86   1.0000      -0.433657       -11.8004
  87   1.0000      -0.429322       -11.6824
  88   1.0000      -0.424939       -11.5632
  89   1.0000      -0.418695       -11.3933
  90   1.0000      -0.414743       -11.2857
  91   1.0000      -0.404801       -11.0152
  92   1.0000      -0.399770       -10.8783
  93   1.0000      -0.393061       -10.6957
  94   1.0000      -0.370872       -10.0919
  95   1.0000      -0.362370        -9.8606
  96   1.0000      -0.338049        -9.1988
  97   1.0000      -0.324021        -8.8171
  98   1.0000      -0.255053        -6.9404
  99   1.0000      -0.230905        -6.2832
 100   0.0000      -0.015748        -0.4285
 101   0.0000       0.009227         0.2511
 102   0.0000       0.018637         0.5071
 103   0.0000       0.047818         1.3012
 104   0.0000       0.059803         1.6273

MULLIKEN ATOMIC CHARGES AND SPIN POPULATIONS
--------------------------------------------
   0 C :   -0.048504    0.544420
   1 O :   -0.539352    0.245545
   2 O :   -0.484904    0.033132
   3 H :    0.305231    0.015886
   4 C :    0.458033    0.011186
   5 C :    0.272608    0.096288
   6 C :    0.327520    0.020911
   7 C :    0.328202    0.013583
   8 C :    0.312224    0.004787
   9 C :    0.323455    0.002287
  10 C :    0.475365    0.000904
  11 F :   -0.231077    0.002203
  12 F :   -0.233212    0.003407
  13 F :   -0.204155    0.000990
  14 F :   -0.201417    0.001974
  15 F :   -0.186239    0.000252
  16 F :   -0.183800    0.000562
  17 F :   -0.176141    0.000219
  18 F :   -0.175959    0.000710
  19 F :   -0.171695    0.000248
  20 F :   -0.171222    0.000134
  21 F :   -0.167376    0.000099
  22 F :   -0.164357    0.000055
  23 F :   -0.155887   -0.000000
  24 F :   -0.154022    0.000214
  25 F :   -0.153319    0.000004
Sum of atomic charges         :   -1.0000000

LOEWDIN ATOMIC CHARGES AND SPIN POPULATIONS
-------------------------------------------
   0 C :   -0.617359    0.406951
   1 O :   -0.118052    0.237725
   2 O :   -0.040058    0.061451
   3 H :    0.169035    0.012538
   4 C :   -0.485100    0.137699
   5 C :   -0.450854    0.059149
   6 C :   -0.458516    0.031795
   7 C :   -0.455837    0.013849
   8 C :   -0.457015    0.006561
   9 C :   -0.463525    0.002671
  10 C :   -0.663341    0.000910
  11 F :    0.138001    0.009423
  12 F :    0.129633    0.011055
  13 F :    0.186424    0.001359
  14 F :    0.188311    0.001790
  15 F :    0.203877    0.001078
  16 F :    0.204808    0.001447
  17 F :    0.215610    0.000466
  18 F :    0.215321    0.000723
  19 F :    0.220520    0.000431
  20 F :    0.220560    0.000263
  21 F :    0.221221    0.000175
  22 F :    0.222544    0.000096
  23 F :    0.224209    0.000028
  24 F :    0.223312    0.000338
  25 F :    0.226272    0.000027

  Mayer bond orders larger than 0.100000
B(  0-C ,  1-O ) :   1.8193 B(  0-C ,  2-O ) :   1.0699 B(  0-C ,  4-C ) :   0.9397
B(  2-O ,  3-H ) :   0.8675 B(  4-C ,  5-C ) :   0.8177 B(  4-C , 11-F ) :   1.0079
B(  4-C , 12-F ) :   1.0042 B(  5-C ,  6-C ) :   0.8947 B(  5-C , 13-F ) :   1.0475
B(  5-C , 14-F ) :   1.0591 B(  6-C ,  7-C ) :   0.9317 B(  6-C , 15-F ) :   1.0607
B(  6-C , 16-F ) :   1.0727 B(  7-C ,  8-C ) :   0.9286 B(  7-C , 17-F ) :   1.0712
B(  7-C , 18-F ) :   1.0767 B(  8-C ,  9-C ) :   0.9255 B(  8-C , 19-F ) :   1.0799
B(  8-C , 20-F ) :   1.0840 B(  9-C , 10-C ) :   0.9696 B(  9-C , 21-F ) :   1.0863
B(  9-C , 22-F ) :   1.0953 B( 10-C , 23-F ) :   1.1445 B( 10-C , 24-F ) :   1.1460
B( 10-C , 25-F ) :   1.1558

Dispersion correction           -0.044867994
FINAL SINGLE POINT ENERGY     -1953.719285944616

DIPOLE MOMENT
-------------

Method             : SCF
Type of density    : Electron Density
Multiplicity       :   2
Irrep              :   0
Energy             : -1953.6744179508880279 Eh
Relativity type    :
Basis              : AO
                                X                 Y                 Z
Electronic contribution:    -22.987895538      -1.934260022       1.719331195
Nuclear contribution   :     15.471611375       2.592453821      -1.256218834
                        -----------------------------------------
Total Dipole Moment    :     -7.516284163       0.658193799       0.463112361
                        -----------------------------------------
Magnitude (a.u.)       :      7.559247301
Magnitude (Debye)      :     19.214079671

Rotational constants in cm-1:             0.021052             0.003654             0.003611
Rotational constants in MHz :           631.138002           109.543289           108.263623

                             ****ORCA TERMINATED NORMALLY****
TOTAL RUN TIME: 0 days 0 hours 9 minutes 48 seconds 425 msec
