                         Program Version 6.0.1  -  RELEASE   -
|  1> !TPSSh def2-TZVP opt d3 TightSCF SlowConv defgrid2
|  2>
|  3> %pal
|  4> nprocs 20
|  5> end
|  6>
|  7> %scf
|  8> MaxIter 1500
|  9> end
| 10>
| 11> %maxcore 8000
| 12>
| 13> !CPCM
| 14> %cpcm smd true
| 15> SMDsolvent "ACETONITRILE"
| 16> end
| 17>
| 18> * xyz -1 1
| 19> 6        7.061480798     27.780530965      3.106576640
| 20> 6        6.358244798     26.583375965      2.416992640
| 21> 6        7.290739798     25.361615965      2.191470640
| 22> 6        6.503816798     24.050508965      1.905927640
| 23> 6        7.390081798     22.949036965      1.254848640
| 24> 6        6.769590798     21.526080965      1.366223640
| 25> 6        7.389881798     20.495443965      0.400529640
| 26> 6        7.047594798     19.000380965      0.790287640
| 27> 9        8.211006798     28.061334965      2.509442640
| 28> 9        7.286980798     27.526353965      4.384782640
| 29> 9        6.271788798     28.845445965      3.024205640
| 30> 9        5.320618798     26.239799965      3.188367640
| 31> 9        5.906995798     27.014763965      1.236217640
| 32> 9        8.092105798     25.656497965      1.162788640
| 33> 9        8.034091798     25.196969965      3.293178640
| 34> 9        6.010694798     23.624429965      3.072509640
| 35> 9        5.491631798     24.352956965      1.082460640
| 36> 9        7.554809798     23.292706965     -0.028459360
| 37> 9        8.581822798     22.977688965      1.870991640
| 38> 9        6.960326798     21.133942965      2.637027640
| 39> 9        5.455181798     21.663434965      1.139465640
| 40> 9        6.910796798     20.782536965     -0.839488360
| 41> 9        8.723370798     20.748082965      0.370020640
| 42> 8        8.017941798     18.242246965      0.795072640
| 43> 8        5.838755798     18.846145965      1.003745640
| 44> 8        3.022589945     18.615377681      1.418469618
| 45> 1        2.921133959     17.670398128      1.249412630
| 46> 1        3.952270754     18.785006115      1.221543930
| 47> 1        9.651244624     17.272645385      0.841919800
| 48> 8       10.455174784     16.738287734      0.846178529
| 49> 1       10.221449611     15.976809483      1.391507198
| 50> *
| 51>
| 52>                          ****END OF INPUT****
 Total Charge           Charge          ....   -1
 Multiplicity           Mult            ....    1
 Number of Electrons    NEL             ....  220
Dispersion correction           -0.034046501
FINAL SINGLE POINT ENERGY     -2106.831815413165
Dispersion correction             ... done (  0.0 sec)
Dispersion correction           -0.033691787
FINAL SINGLE POINT ENERGY     -2106.836182960996
Dispersion correction             ... done (  0.0 sec)
Dispersion correction           -0.033715676
FINAL SINGLE POINT ENERGY     -2106.836782002135
Dispersion correction             ... done (  0.0 sec)
FINAL SINGLE POINT ENERGY     -2106.836950188860
FINAL SINGLE POINT ENERGY     -2106.837087180107
FINAL SINGLE POINT ENERGY     -2106.837328728430
FINAL SINGLE POINT ENERGY     -2106.837217808729
FINAL SINGLE POINT ENERGY     -2106.837161471862
FINAL SINGLE POINT ENERGY     -2106.837225982768
FINAL SINGLE POINT ENERGY     -2106.837897490380
FINAL SINGLE POINT ENERGY     -2106.841957799767
FINAL SINGLE POINT ENERGY     -2106.841958113557
FINAL SINGLE POINT ENERGY     -2106.841958350851
FINAL SINGLE POINT ENERGY     -2106.841958646653
FINAL SINGLE POINT ENERGY     -2106.841958939285
FINAL SINGLE POINT ENERGY     -2106.841959161034
FINAL SINGLE POINT ENERGY     -2106.841959557657
Dispersion correction             ... done (  0.0 sec)
Dispersion correction           -0.035640944
FINAL SINGLE POINT ENERGY     -2106.841959703528
Dispersion correction             ... done (  0.0 sec)
Dispersion correction           -0.035640931
FINAL SINGLE POINT ENERGY     -2106.841959739946
Dispersion correction             ... done (  0.0 sec)
                    ***********************HURRAY********************

CARTESIAN COORDINATES (ANGSTROEM)
---------------------------------
  C      7.532603   27.489455    3.052301
  C      6.642527   26.278979    2.624243
  C      7.447820   25.041555    2.102473
  C      6.616000   23.712985    2.103896
  C      7.227649   22.593686    1.193221
  C      6.686639   21.159845    1.510636
  C      6.920042   20.103543    0.392428
  C      6.752421   18.629512    0.924047
  F      8.413523   27.790108    2.092045
  F      8.192613   27.222714    4.180838
  F      6.747249   28.550582    3.261013
  F      5.900593   25.920561    3.694438
  F      5.817295   26.703337    1.646372
  F      7.858787   25.309328    0.844092
  F      8.536955   24.868043    2.881348
  F      6.548344   23.260823    3.374406
  F      5.364515   23.984207    1.673321
  F      6.950657   22.901065   -0.092898
  F      8.570594   22.595164    1.357410
  F      7.297928   20.730575    2.642893
  F      5.357218   21.246179    1.758984
  F      6.041471   20.358586   -0.618160
  F      8.172752   20.307113   -0.115771
  O      7.807800   18.048051    1.233451
  O      5.574153   18.231462    0.982291
  O      3.080653   19.066976    0.097957
  H      2.641486   18.208749    0.032068
  H      3.997236   18.848301    0.378512
  H      9.407189   18.757821    1.610212
  O     10.295669   19.083049    1.881903
  H     10.303834   20.008488    1.604251

 Multiplicity           Mult            ....    1
 Number of Electrons    NEL             ....  220
 Basis Dimension        Dim             ....  861

ORBITAL ENERGIES
----------------

  NO   OCC          E(Eh)            E(eV)
   0   2.0000     -24.660747      -671.0530
   1   2.0000     -24.659774      -671.0266
   2   2.0000     -24.659746      -671.0258
   3   2.0000     -24.659589      -671.0215
   4   2.0000     -24.659524      -671.0198
   5   2.0000     -24.659138      -671.0092
   6   2.0000     -24.658516      -670.9923
   7   2.0000     -24.657596      -670.9673
   8   2.0000     -24.657346      -670.9605
   9   2.0000     -24.653330      -670.8512
  10   2.0000     -24.652828      -670.8376
  11   2.0000     -24.644753      -670.6178
  12   2.0000     -24.643708      -670.5894
  13   2.0000     -24.623981      -670.0526
  14   2.0000     -24.622535      -670.0132
  15   2.0000     -19.015105      -517.4273
  16   2.0000     -19.014850      -517.4204
  17   2.0000     -19.011527      -517.3300
  18   2.0000     -19.011153      -517.3198
  19   2.0000     -10.395447      -282.8745
  20   2.0000     -10.344575      -281.4902
  21   2.0000     -10.343536      -281.4619
  22   2.0000     -10.341921      -281.4180
  23   2.0000     -10.336418      -281.2682
  24   2.0000     -10.323606      -280.9196
  25   2.0000     -10.292241      -280.0661
  26   2.0000     -10.211450      -277.8677
  27   2.0000      -1.322004       -35.9736
  28   2.0000      -1.300023       -35.3754
  29   2.0000      -1.285792       -34.9882
  30   2.0000      -1.277180       -34.7538
  31   2.0000      -1.274526       -34.6816
  32   2.0000      -1.265671       -34.4406
  33   2.0000      -1.242327       -33.8054
  34   2.0000      -1.237548       -33.6754
  35   2.0000      -1.231675       -33.5156
  36   2.0000      -1.230970       -33.4964
  37   2.0000      -1.225022       -33.3346
  38   2.0000      -1.221333       -33.2342
  39   2.0000      -1.218565       -33.1589
  40   2.0000      -1.209366       -32.9085
  41   2.0000      -1.186009       -32.2729
  42   2.0000      -1.020777       -27.7768
  43   2.0000      -0.951797       -25.8997
  44   2.0000      -0.949079       -25.8257
  45   2.0000      -0.935638       -25.4600
  46   2.0000      -0.824365       -22.4321
  47   2.0000      -0.803672       -21.8690
  48   2.0000      -0.775025       -21.0895
  49   2.0000      -0.737570       -20.0703
  50   2.0000      -0.694610       -18.9013
  51   2.0000      -0.663796       -18.0628
  52   2.0000      -0.647430       -17.6175
  53   2.0000      -0.623308       -16.9611
  54   2.0000      -0.618730       -16.8365
  55   2.0000      -0.610411       -16.6101
  56   2.0000      -0.603338       -16.4176
  57   2.0000      -0.599088       -16.3020
  58   2.0000      -0.597920       -16.2702
  59   2.0000      -0.585322       -15.9274
  60   2.0000      -0.582093       -15.8395
  61   2.0000      -0.577635       -15.7182
  62   2.0000      -0.570238       -15.5170
  63   2.0000      -0.559854       -15.2344
  64   2.0000      -0.558029       -15.1847
  65   2.0000      -0.553089       -15.0503
  66   2.0000      -0.547873       -14.9084
  67   2.0000      -0.530775       -14.4431
  68   2.0000      -0.491681       -13.3793
  69   2.0000      -0.486766       -13.2456
  70   2.0000      -0.483600       -13.1594
  71   2.0000      -0.478253       -13.0139
  72   2.0000      -0.475558       -12.9406
  73   2.0000      -0.474497       -12.9117
  74   2.0000      -0.470420       -12.8008
  75   2.0000      -0.467442       -12.7198
  76   2.0000      -0.464368       -12.6361
  77   2.0000      -0.457773       -12.4566
  78   2.0000      -0.454273       -12.3614
  79   2.0000      -0.452096       -12.3022
  80   2.0000      -0.449559       -12.2331
  81   2.0000      -0.443972       -12.0811
  82   2.0000      -0.442386       -12.0379
  83   2.0000      -0.439120       -11.9491
  84   2.0000      -0.433979       -11.8092
  85   2.0000      -0.432615       -11.7721
  86   2.0000      -0.424354       -11.5473
  87   2.0000      -0.423220       -11.5164
  88   2.0000      -0.420805       -11.4507
  89   2.0000      -0.417644       -11.3647
  90   2.0000      -0.416387       -11.3305
  91   2.0000      -0.414177       -11.2703
  92   2.0000      -0.411984       -11.2107
  93   2.0000      -0.410383       -11.1671
  94   2.0000      -0.408472       -11.1151
  95   2.0000      -0.404482       -11.0065
  96   2.0000      -0.399302       -10.8656
  97   2.0000      -0.396645       -10.7933
  98   2.0000      -0.390475       -10.6254
  99   2.0000      -0.382857       -10.4181
 100   2.0000      -0.380461       -10.3529
 101   2.0000      -0.353196        -9.6109
 102   2.0000      -0.337272        -9.1776
 103   2.0000      -0.334103        -9.0914
 104   2.0000      -0.322264        -8.7693
 105   2.0000      -0.263809        -7.1786
 106   2.0000      -0.260846        -7.0980
 107   2.0000      -0.251352        -6.8396
 108   2.0000      -0.239740        -6.5237
 109   2.0000      -0.238872        -6.5000
 110   0.0000      -0.025897        -0.7047
 111   0.0000      -0.009148        -0.2489
 112   0.0000       0.006939         0.1888
 113   0.0000       0.028445         0.7740
 114   0.0000       0.042630         1.1600

MULLIKEN ATOMIC CHARGES
-----------------------
   0 C :    0.408492
   1 C :    0.296330
   2 C :    0.272592
   3 C :    0.294569
   4 C :    0.294961
   5 C :    0.264522
   6 C :    0.291453
   7 C :    0.286476
   8 F :   -0.136035
   9 F :   -0.132995
  10 F :   -0.132660
  11 F :   -0.146768
  12 F :   -0.143726
  13 F :   -0.148917
  14 F :   -0.148528
  15 F :   -0.149130
  16 F :   -0.149885
  17 F :   -0.152823
  18 F :   -0.156260
  19 F :   -0.165812
  20 F :   -0.164272
  21 F :   -0.188026
  22 F :   -0.190977
  23 O :   -0.494681
  24 O :   -0.505968
  25 O :   -0.736245
  26 H :    0.333063
  27 H :    0.352431
  28 H :    0.346163
  29 O :   -0.730708
  30 H :    0.333365
Sum of atomic charges:   -1.0000000

LOEWDIN ATOMIC CHARGES
----------------------
   0 C :   -0.668271
   1 C :   -0.466393
   2 C :   -0.460355
   3 C :   -0.459414
   4 C :   -0.458327
   5 C :   -0.458679
   6 C :   -0.445025
   7 C :   -0.645260
   8 F :    0.226223
   9 F :    0.228817
  10 F :    0.227148
  11 F :    0.225193
  12 F :    0.226473
  13 F :    0.226581
  14 F :    0.226687
  15 F :    0.226352
  16 F :    0.225136
  17 F :    0.222263
  18 F :    0.220156
  19 F :    0.212070
  20 F :    0.213757
  21 F :    0.177428
  22 F :    0.174475
  23 O :   -0.021655
  24 O :   -0.025815
  25 O :   -0.369902
  26 H :    0.156837
  27 H :    0.140249
  28 H :    0.137495
  29 O :   -0.365655
  30 H :    0.151413

  Mayer bond orders larger than 0.100000
B(  0-C ,  1-C ) :   0.9711 B(  0-C ,  8-F ) :   1.1585 B(  0-C ,  9-F ) :   1.1712
B(  0-C , 10-F ) :   1.1630 B(  1-C ,  2-C ) :   0.9437 B(  1-C , 11-F ) :   1.1005
B(  1-C , 12-F ) :   1.1129 B(  2-C ,  3-C ) :   0.9484 B(  2-C , 13-F ) :   1.0968
B(  2-C , 14-F ) :   1.1022 B(  3-C ,  4-C ) :   0.9552 B(  3-C , 15-F ) :   1.0942
B(  3-C , 16-F ) :   1.0935 B(  4-C ,  5-C ) :   0.9447 B(  4-C , 17-F ) :   1.0955
B(  4-C , 18-F ) :   1.0832 B(  5-C ,  6-C ) :   0.9270 B(  5-C , 19-F ) :   1.0798
B(  5-C , 20-F ) :   1.0888 B(  6-C ,  7-C ) :   0.8965 B(  6-C , 21-F ) :   1.0641
B(  6-C , 22-F ) :   1.0522 B(  7-C , 23-O ) :   1.7240 B(  7-C , 24-O ) :   1.7129
B( 23-O , 28-H ) :   0.1160 B( 24-O , 27-H ) :   0.1079 B( 25-O , 26-H ) :   0.8978
B( 25-O , 27-H ) :   0.8189 B( 28-H , 29-O ) :   0.8247 B( 29-O , 30-H ) :   0.8981

Dispersion correction           -0.035640014
FINAL SINGLE POINT ENERGY     -2106.841959915262

DIPOLE MOMENT
-------------

Method             : SCF
Type of density    : Electron Density
Multiplicity       :   1
Irrep              :   0
Energy             : -2106.8063199014814018 Eh
Relativity type    :
Basis              : AO
                                X                 Y                 Z
Electronic contribution:      2.660181897      38.087241520       6.575856298
Nuclear contribution   :     -2.482291573     -30.215526733      -5.482800692
                        -----------------------------------------
Total Dipole Moment    :      0.177890324       7.871714787       1.093055606
                        -----------------------------------------
Magnitude (a.u.)       :      7.949233247
Magnitude (Debye)      :     20.205345168

Rotational constants in cm-1:             0.013190             0.003225             0.002949
Rotational constants in MHz :           395.429177            96.669505            88.403280

                             ****ORCA TERMINATED NORMALLY****
TOTAL RUN TIME: 0 days 1 hours 34 minutes 20 seconds 547 msec
