                         Program Version 6.0.1  -  RELEASE   -
|  1> !TPSSh def2-TZVP freq d3 TightSCF SlowConv defgrid2
|  2>
|  3> %pal
|  4> nprocs 20
|  5> end
|  6>
|  7> %scf
|  8> MaxIter 1500
|  9> end
| 10>
| 11> %maxcore 8000
| 12>
| 13> !CPCM
| 14> %cpcm smd true
| 15> SMDsolvent "ACETONITRILE"
| 16> end
| 17>
| 18> * xyz -1 2
| 19> 6        4.690093000      0.312596000     -0.661274000
| 20> 8        5.303574000     -0.541725000     -1.319160000
| 21> 8        4.820626000      1.547284000     -0.571506000
| 22> 6        3.518533000     -0.244747000      0.244574000
| 23> 6        2.118771000      0.265888000     -0.199858000
| 24> 6        0.903578000     -0.562043000      0.335157000
| 25> 6       -0.472005000      0.178085000      0.224862000
| 26> 6       -1.730795000     -0.748919000      0.318031000
| 27> 6       -3.009715000      0.012638000      0.507026000
| 28> 6       -4.087395000      0.187901000     -0.522041000
| 29> 9        3.468799000     -1.613048000      0.243578000
| 30> 9        3.708374000      0.130186000      1.550800000
| 31> 9        1.950574000      1.550726000      0.198229000
| 32> 9        2.068994000      0.234110000     -1.558405000
| 33> 9        0.822684000     -1.721681000     -0.357851000
| 34> 9        1.109548000     -0.857437000      1.639753000
| 35> 9       -0.560287000      1.085440000      1.225167000
| 36> 9       -0.542534000      0.835815000     -0.955164000
| 37> 9       -1.552326000     -1.597504000      1.366648000
| 38> 9       -1.819075000     -1.475281000     -0.823686000
| 39> 9       -3.326059000      0.336551000      1.748509000
| 40> 9       -4.791688000     -0.946082000     -0.740133000
| 41> 9       -4.955230000      1.126444000     -0.120081000
| 42> 9       -3.566838000      0.559131000     -1.704461000
| 43> *
| 44>
| 45>                          ****END OF INPUT****

CARTESIAN COORDINATES (ANGSTROEM)
---------------------------------
  C      4.690093    0.312596   -0.661274
  O      5.303574   -0.541725   -1.319160
  O      4.820626    1.547284   -0.571506
  C      3.518533   -0.244747    0.244574
  C      2.118771    0.265888   -0.199858
  C      0.903578   -0.562043    0.335157
  C     -0.472005    0.178085    0.224862
  C     -1.730795   -0.748919    0.318031
  C     -3.009715    0.012638    0.507026
  C     -4.087395    0.187901   -0.522041
  F      3.468799   -1.613048    0.243578
  F      3.708374    0.130186    1.550800
  F      1.950574    1.550726    0.198229
  F      2.068994    0.234110   -1.558405
  F      0.822684   -1.721681   -0.357851
  F      1.109548   -0.857437    1.639753
  F     -0.560287    1.085440    1.225167
  F     -0.542534    0.835815   -0.955164
  F     -1.552326   -1.597504    1.366648
  F     -1.819075   -1.475281   -0.823686
  F     -3.326059    0.336551    1.748509
  F     -4.791688   -0.946082   -0.740133
  F     -4.955230    1.126444   -0.120081
  F     -3.566838    0.559131   -1.704461

 Total Charge           Charge          ....   -1
 Multiplicity           Mult            ....    2
 Number of Electrons    NEL             ....  191
 Basis Dimension        Dim             ....  744

ORBITAL ENERGIES
----------------
                 SPIN UP ORBITALS
  NO   OCC          E(Eh)            E(eV)
   0   1.0000     -24.671324      -671.3409
   1   1.0000     -24.653717      -670.8617
   2   1.0000     -24.653124      -670.8456
   3   1.0000     -24.652979      -670.8417
   4   1.0000     -24.652879      -670.8389
   5   1.0000     -24.651812      -670.8099
   6   1.0000     -24.650765      -670.7814
   7   1.0000     -24.648714      -670.7256
   8   1.0000     -24.648388      -670.7167
   9   1.0000     -24.647391      -670.6896
  10   1.0000     -24.638479      -670.4471
  11   1.0000     -24.638299      -670.4422
  12   1.0000     -24.614036      -669.7820
  13   1.0000     -24.613647      -669.7714
  14   1.0000     -18.988463      -516.7024
  15   1.0000     -18.986653      -516.6531
  16   1.0000     -10.391620      -282.7704
  17   1.0000     -10.339821      -281.3608
  18   1.0000     -10.334433      -281.2142
  19   1.0000     -10.331178      -281.1257
  20   1.0000     -10.316432      -280.7244
  21   1.0000     -10.279115      -279.7090
  22   1.0000     -10.264736      -279.3177
  23   1.0000     -10.189636      -277.2741
  24   1.0000      -1.308341       -35.6018
  25   1.0000      -1.291953       -35.1558
  26   1.0000      -1.275661       -34.7125
  27   1.0000      -1.268544       -34.5188
  28   1.0000      -1.262841       -34.3637
  29   1.0000      -1.258964       -34.2581
  30   1.0000      -1.231281       -33.5049
  31   1.0000      -1.226262       -33.3683
  32   1.0000      -1.223192       -33.2847
  33   1.0000      -1.217403       -33.1272
  34   1.0000      -1.216456       -33.1015
  35   1.0000      -1.213174       -33.0121
  36   1.0000      -1.203288       -32.7431
  37   1.0000      -1.175320       -31.9821
  38   1.0000      -0.996881       -27.1265
  39   1.0000      -0.915644       -24.9159
  40   1.0000      -0.828634       -22.5483
  41   1.0000      -0.801912       -21.8211
  42   1.0000      -0.767503       -20.8848
  43   1.0000      -0.729785       -19.8584
  44   1.0000      -0.687345       -18.7036
  45   1.0000      -0.650928       -17.7127
  46   1.0000      -0.640840       -17.4381
  47   1.0000      -0.610674       -16.6173
  48   1.0000      -0.606395       -16.5009
  49   1.0000      -0.604676       -16.4541
  50   1.0000      -0.594291       -16.1715
  51   1.0000      -0.590831       -16.0773
  52   1.0000      -0.589440       -16.0395
  53   1.0000      -0.574699       -15.6384
  54   1.0000      -0.571830       -15.5603
  55   1.0000      -0.566210       -15.4074
  56   1.0000      -0.555098       -15.1050
  57   1.0000      -0.550622       -14.9832
  58   1.0000      -0.546047       -14.8587
  59   1.0000      -0.537275       -14.6200
  60   1.0000      -0.521425       -14.1887
  61   1.0000      -0.504653       -13.7323
  62   1.0000      -0.473763       -12.8917
  63   1.0000      -0.471682       -12.8351
  64   1.0000      -0.468585       -12.7509
  65   1.0000      -0.463924       -12.6240
  66   1.0000      -0.460395       -12.5280
  67   1.0000      -0.457448       -12.4478
  68   1.0000      -0.453880       -12.3507
  69   1.0000      -0.450529       -12.2595
  70   1.0000      -0.444454       -12.0942
  71   1.0000      -0.438981       -11.9453
  72   1.0000      -0.436128       -11.8676
  73   1.0000      -0.434076       -11.8118
  74   1.0000      -0.431012       -11.7284
  75   1.0000      -0.425693       -11.5837
  76   1.0000      -0.424502       -11.5513
  77   1.0000      -0.420582       -11.4446
  78   1.0000      -0.416070       -11.3219
  79   1.0000      -0.411751       -11.2043
  80   1.0000      -0.409755       -11.1500
  81   1.0000      -0.405333       -11.0297
  82   1.0000      -0.404512       -11.0073
  83   1.0000      -0.402506       -10.9527
  84   1.0000      -0.398237       -10.8366
  85   1.0000      -0.390674       -10.6308
  86   1.0000      -0.382565       -10.4101
  87   1.0000      -0.380200       -10.3458
  88   1.0000      -0.374306       -10.1854
  89   1.0000      -0.362919        -9.8755
  90   1.0000      -0.355172        -9.6647
  91   1.0000      -0.320775        -8.7287
  92   1.0000      -0.258140        -7.0243
  93   1.0000      -0.232166        -6.3175
  94   1.0000      -0.217645        -5.9224
  95   1.0000      -0.215607        -5.8670
  96   0.0000      -0.009367        -0.2549
  97   0.0000       0.000590         0.0160
  98   0.0000       0.014504         0.3947
  99   0.0000       0.041211         1.1214
 100   0.0000       0.064167         1.7461

                 SPIN DOWN ORBITALS
  NO   OCC          E(Eh)            E(eV)
   0   1.0000     -24.666788      -671.2174
   1   1.0000     -24.653703      -670.8614
   2   1.0000     -24.653094      -670.8448
   3   1.0000     -24.652710      -670.8344
   4   1.0000     -24.652674      -670.8334
   5   1.0000     -24.651298      -670.7959
   6   1.0000     -24.649979      -670.7600
   7   1.0000     -24.648719      -670.7258
   8   1.0000     -24.648380      -670.7165
   9   1.0000     -24.646004      -670.6519
  10   1.0000     -24.638482      -670.4472
  11   1.0000     -24.638297      -670.4421
  12   1.0000     -24.614033      -669.7819
  13   1.0000     -24.613648      -669.7714
  14   1.0000     -18.988444      -516.7018
  15   1.0000     -18.986650      -516.6530
  16   1.0000     -10.392325      -282.7895
  17   1.0000     -10.340717      -281.3852
  18   1.0000     -10.333837      -281.1980
  19   1.0000     -10.331079      -281.1230
  20   1.0000     -10.316390      -280.7233
  21   1.0000     -10.279096      -279.7084
  22   1.0000     -10.248916      -278.8872
  23   1.0000     -10.189632      -277.2740
  24   1.0000      -1.306889       -35.5623
  25   1.0000      -1.291480       -35.1430
  26   1.0000      -1.274416       -34.6786
  27   1.0000      -1.267733       -34.4968
  28   1.0000      -1.259098       -34.2618
  29   1.0000      -1.255566       -34.1657
  30   1.0000      -1.231271       -33.5046
  31   1.0000      -1.225829       -33.3565
  32   1.0000      -1.222418       -33.2637
  33   1.0000      -1.215758       -33.0825
  34   1.0000      -1.215106       -33.0647
  35   1.0000      -1.212826       -33.0027
  36   1.0000      -1.203286       -32.7431
  37   1.0000      -1.175317       -31.9820
  38   1.0000      -0.996862       -27.1260
  39   1.0000      -0.915621       -24.9153
  40   1.0000      -0.817862       -22.2552
  41   1.0000      -0.795252       -21.6399
  42   1.0000      -0.763216       -20.7682
  43   1.0000      -0.728774       -19.8310
  44   1.0000      -0.684520       -18.6267
  45   1.0000      -0.646214       -17.5844
  46   1.0000      -0.640294       -17.4233
  47   1.0000      -0.609140       -16.5756
  48   1.0000      -0.602442       -16.3933
  49   1.0000      -0.602164       -16.3857
  50   1.0000      -0.593615       -16.1531
  51   1.0000      -0.588607       -16.0168
  52   1.0000      -0.586809       -15.9679
  53   1.0000      -0.573796       -15.6138
  54   1.0000      -0.571114       -15.5408
  55   1.0000      -0.564789       -15.3687
  56   1.0000      -0.554501       -15.0887
  57   1.0000      -0.549229       -14.9453
  58   1.0000      -0.545664       -14.8483
  59   1.0000      -0.536905       -14.6099
  60   1.0000      -0.521417       -14.1885
  61   1.0000      -0.475946       -12.9511
  62   1.0000      -0.472251       -12.8506
  63   1.0000      -0.470646       -12.8069
  64   1.0000      -0.466876       -12.7043
  65   1.0000      -0.462275       -12.5791
  66   1.0000      -0.459763       -12.5108
  67   1.0000      -0.455634       -12.3984
  68   1.0000      -0.451877       -12.2962
  69   1.0000      -0.449476       -12.2309
  70   1.0000      -0.443339       -12.0639
  71   1.0000      -0.438667       -11.9367
  72   1.0000      -0.435339       -11.8462
  73   1.0000      -0.431812       -11.7502
  74   1.0000      -0.429563       -11.6890
  75   1.0000      -0.425377       -11.5751
  76   1.0000      -0.422232       -11.4895
  77   1.0000      -0.419756       -11.4221
  78   1.0000      -0.415531       -11.3072
  79   1.0000      -0.411276       -11.1914
  80   1.0000      -0.409099       -11.1321
  81   1.0000      -0.404880       -11.0173
  82   1.0000      -0.403591       -10.9823
  83   1.0000      -0.402421       -10.9504
  84   1.0000      -0.397037       -10.8039
  85   1.0000      -0.389617       -10.6020
  86   1.0000      -0.382554       -10.4098
  87   1.0000      -0.379094       -10.3157
  88   1.0000      -0.374250       -10.1839
  89   1.0000      -0.362897        -9.8749
  90   1.0000      -0.353613        -9.6223
  91   1.0000      -0.319553        -8.6955
  92   1.0000      -0.232156        -6.3173
  93   1.0000      -0.217697        -5.9238
  94   1.0000      -0.215602        -5.8668
  95   0.0000      -0.131768        -3.5856
  96   0.0000      -0.005855        -0.1593
  97   0.0000       0.005086         0.1384
  98   0.0000       0.019201         0.5225
  99   0.0000       0.045081         1.2267

MULLIKEN ATOMIC CHARGES AND SPIN POPULATIONS
--------------------------------------------
   0 C :    0.167230    0.000182
   1 O :   -0.478204    0.000655
   2 O :   -0.492091    0.000125
   3 C :    0.299488    0.000595
   4 C :    0.281418    0.002014
   5 C :    0.288196    0.005021
   6 C :    0.272501    0.028385
   7 C :    0.341014   -0.015747
   8 C :    0.144661    0.853761
   9 C :    0.414382   -0.018449
  10 F :   -0.195070   -0.000009
  11 F :   -0.201729    0.000085
  12 F :   -0.165934   -0.000022
  13 F :   -0.173737    0.000062
  14 F :   -0.157985   -0.000167
  15 F :   -0.157758    0.000132
  16 F :   -0.156915   -0.000236
  17 F :   -0.157240   -0.000538
  18 F :   -0.156994    0.014708
  19 F :   -0.155035    0.004706
  20 F :   -0.123765    0.086597
  21 F :   -0.150463    0.026626
  22 F :   -0.141144    0.002741
  23 F :   -0.144828    0.008772
Sum of atomic charges         :   -1.0000000

LOEWDIN ATOMIC CHARGES AND SPIN POPULATIONS
-------------------------------------------
   0 C :   -0.691720    0.000224
   1 O :   -0.047589    0.000588
   2 O :   -0.053985    0.000114
   3 C :   -0.438916    0.000683
   4 C :   -0.456206    0.001543
   5 C :   -0.457945    0.004506
   6 C :   -0.454358    0.021411
   7 C :   -0.480434    0.061718
   8 C :   -0.167461    0.669315
   9 C :   -0.671676    0.059328
  10 F :    0.163566   -0.000014
  11 F :    0.154557    0.000092
  12 F :    0.208859   -0.000057
  13 F :    0.203019    0.000081
  14 F :    0.215798   -0.000095
  15 F :    0.216105    0.000235
  16 F :    0.219705    0.001069
  17 F :    0.220913    0.000694
  18 F :    0.209451    0.015743
  19 F :    0.217419    0.006158
  20 F :    0.264480    0.110802
  21 F :    0.195355    0.030154
  22 F :    0.219238    0.004080
  23 F :    0.211827    0.011630

  Mayer bond orders larger than 0.100000
B(  0-C ,  1-O ) :   1.8738 B(  0-C ,  2-O ) :   1.8463 B(  0-C ,  3-C ) :   0.8532
B(  3-C ,  4-C ) :   0.9374 B(  3-C , 10-F ) :   1.0532 B(  3-C , 11-F ) :   1.0406
B(  4-C ,  5-C ) :   0.9381 B(  4-C , 12-F ) :   1.0774 B(  4-C , 13-F ) :   1.0661
B(  5-C ,  6-C ) :   0.9457 B(  5-C , 14-F ) :   1.0829 B(  5-C , 15-F ) :   1.0921
B(  6-C ,  7-C ) :   0.9479 B(  6-C , 16-F ) :   1.0863 B(  6-C , 17-F ) :   1.0940
B(  7-C ,  8-C ) :   1.0063 B(  7-C , 18-F ) :   1.0834 B(  7-C , 19-F ) :   1.0982
B(  8-C ,  9-C ) :   1.0539 B(  8-C , 20-F ) :   1.1465 B(  9-C , 21-F ) :   1.1445
B(  9-C , 22-F ) :   1.1566 B(  9-C , 23-F ) :   1.1492

Dispersion correction           -0.029052656
FINAL SINGLE POINT ENERGY     -1853.953199079113

DIPOLE MOMENT
-------------

Method             : SCF
Type of density    : Electron Density
Multiplicity       :   2
Irrep              :   0
Energy             : -1853.9241464235690273 Eh
Relativity type    :
Basis              : AO
                                X                 Y                 Z
Electronic contribution:    -17.087438231      -1.739218273       2.934166148
Nuclear contribution   :      8.647431540       1.018991628      -1.442488692
                        -----------------------------------------
Total Dipole Moment    :     -8.440006691      -0.720226645       1.491677456
                        -----------------------------------------
Magnitude (a.u.)       :      8.601019765
Magnitude (Debye)      :     21.862054836

VIBRATIONAL FREQUENCIES
-----------------------

Scaling factor for frequencies =  1.000000000  (already applied!)

     0:       0.00 cm**-1
     1:       0.00 cm**-1
     2:       0.00 cm**-1
     3:       0.00 cm**-1
     4:       0.00 cm**-1
     5:       0.00 cm**-1
     6:      18.91 cm**-1
     7:      20.43 cm**-1
     8:      24.86 cm**-1
     9:      38.92 cm**-1
    10:      40.56 cm**-1
    11:      53.24 cm**-1
    12:      60.23 cm**-1
    13:      70.02 cm**-1
    14:     100.17 cm**-1
    15:     124.01 cm**-1
    16:     145.33 cm**-1
    17:     161.98 cm**-1
    18:     186.06 cm**-1
    19:     187.49 cm**-1
    20:     202.45 cm**-1
    21:     218.63 cm**-1
    22:     238.45 cm**-1
    23:     241.25 cm**-1
    24:     251.99 cm**-1
    25:     264.33 cm**-1
    26:     296.37 cm**-1
    27:     305.81 cm**-1
    28:     316.21 cm**-1
    29:     340.03 cm**-1
    30:     343.75 cm**-1
    31:     354.32 cm**-1
    32:     360.00 cm**-1
    33:     364.01 cm**-1
    34:     396.37 cm**-1
    35:     424.34 cm**-1
    36:     458.25 cm**-1
    37:     484.45 cm**-1
    38:     525.13 cm**-1
    39:     537.51 cm**-1
    40:     542.54 cm**-1
    41:     553.81 cm**-1
    42:     568.71 cm**-1
    43:     592.31 cm**-1
    44:     619.41 cm**-1
    45:     642.75 cm**-1
    46:     661.51 cm**-1
    47:     704.97 cm**-1
    48:     706.50 cm**-1
    49:     759.15 cm**-1
    50:     781.74 cm**-1
    51:     864.56 cm**-1
    52:     983.52 cm**-1
    53:    1046.90 cm**-1
    54:    1064.26 cm**-1
    55:    1073.03 cm**-1
    56:    1097.52 cm**-1
    57:    1106.59 cm**-1
    58:    1109.28 cm**-1
    59:    1122.47 cm**-1
    60:    1131.30 cm**-1
    61:    1138.55 cm**-1
    62:    1146.20 cm**-1
    63:    1147.16 cm**-1
    64:    1185.38 cm**-1
    65:    1197.29 cm**-1
    66:    1252.31 cm**-1
    67:    1274.31 cm**-1
    68:    1321.47 cm**-1
    69:    1353.90 cm**-1
    70:    1399.87 cm**-1
    71:    1724.32 cm**-1

IR SPECTRUM
-----------

 Mode   freq       eps      Int      T**2         TX        TY        TZ
       cm**-1   L/(mol*cm) km/mol    a.u.
----------------------------------------------------------------------------
  6:     18.91   0.000115    0.58  0.001896  ( 0.005804 -0.003306  0.043027)
  7:     20.43   0.000415    2.10  0.006332  (-0.030434  0.056922 -0.046540)
  8:     24.86   0.000413    2.09  0.005188  (-0.007653 -0.041997 -0.058015)
  9:     38.92   0.000110    0.56  0.000883  (-0.013642 -0.020314 -0.016844)
 10:     40.56   0.000129    0.65  0.000991  (-0.013252 -0.017922 -0.022228)
 11:     53.24   0.000295    1.49  0.001729  ( 0.009875 -0.039934 -0.006035)
 12:     60.23   0.000026    0.13  0.000133  ( 0.002810  0.007066  0.008694)
 13:     70.02   0.000443    2.24  0.001974  ( 0.025138 -0.025281  0.026509)
 14:    100.17   0.000290    1.47  0.000904  ( 0.020948 -0.010947  0.018594)
 15:    124.01   0.001123    5.68  0.002826  (-0.042328 -0.006196 -0.031564)
 16:    145.33   0.000209    1.06  0.000450  (-0.017775  0.009927  0.005929)
 17:    161.98   0.001236    6.25  0.002382  (-0.028458 -0.002123  0.039590)
 18:    186.06   0.000452    2.28  0.000758  ( 0.026632 -0.000269 -0.006990)
 19:    187.49   0.001792    9.05  0.002982  ( 0.016174  0.021303  0.047607)
 20:    202.45   0.000117    0.59  0.000180  ( 0.006312  0.008803 -0.007926)
 21:    218.63   0.000236    1.19  0.000337  ( 0.014137 -0.011042 -0.003873)
 22:    238.45   0.000034    0.17  0.000044  ( 0.002569 -0.003332 -0.005160)
 23:    241.25   0.000068    0.35  0.000088  ( 0.005601 -0.002549 -0.007107)
 24:    251.99   0.000280    1.41  0.000347  (-0.009480  0.000894 -0.015996)
 25:    264.33   0.000368    1.86  0.000435  (-0.020138  0.001970 -0.005032)
 26:    296.37   0.000387    1.96  0.000408  ( 0.018205 -0.007141 -0.005026)
 27:    305.81   0.000172    0.87  0.000176  (-0.010077  0.008557  0.000923)
 28:    316.21   0.000037    0.19  0.000036  ( 0.002040 -0.000142 -0.005674)
 29:    340.03   0.000395    2.00  0.000363  ( 0.016380  0.000177  0.009721)
 30:    343.75   0.000265    1.34  0.000240  ( 0.009109  0.002481  0.012300)
 31:    354.32   0.000166    0.84  0.000146  ( 0.011961 -0.001571 -0.000675)
 32:    360.00   0.000601    3.04  0.000521  ( 0.022766  0.000295  0.001623)
 33:    364.01   0.000025    0.12  0.000021  ( 0.004488  0.000938 -0.000088)
 34:    396.37   0.000978    4.94  0.000770  ( 0.027654  0.001159  0.001925)
 35:    424.34   0.001400    7.07  0.001029  ( 0.031796 -0.004235  0.000549)
 36:    458.25   0.000909    4.59  0.000619  (-0.013842 -0.011901 -0.016897)
 37:    484.45   0.006183   31.25  0.003983  (-0.061041  0.016006  0.000847)
 38:    525.13   0.003474   17.55  0.002064  ( 0.043212 -0.003568  0.013574)
 39:    537.51   0.007360   37.19  0.004273  (-0.065300 -0.001455  0.002570)
 40:    542.54   0.006204   31.35  0.003568  ( 0.044171 -0.033768  0.021840)
 41:    553.81   0.005874   29.68  0.003310  ( 0.044016  0.033200 -0.016432)
 42:    568.71   0.001088    5.50  0.000597  ( 0.014693 -0.017152 -0.009319)
 43:    592.31   0.000705    3.56  0.000372  (-0.016230 -0.010251  0.001771)
 44:    619.41   0.001617    8.17  0.000815  ( 0.017086 -0.013154  0.018704)
 45:    642.75   0.049403  249.66  0.023986  ( 0.154077  0.015325 -0.003328)
 46:    661.51   0.000249    1.26  0.000118  ( 0.000409 -0.010347  0.003219)
 47:    704.97   0.001801    9.10  0.000797  ( 0.000357 -0.011713  0.025691)
 48:    706.50   0.002535   12.81  0.001120  (-0.027265  0.010489 -0.016326)
 49:    759.15   0.001673    8.45  0.000688  (-0.023714  0.003597  0.010598)
 50:    781.74   0.020724  104.73  0.008273  (-0.059285 -0.029918  0.062152)
 51:    864.56   0.004351   21.99  0.001571  (-0.039246  0.003342 -0.004366)
 52:    983.52   0.019360   97.84  0.006143  ( 0.053694 -0.027731  0.049907)
 53:   1046.90   0.017505   88.46  0.005218  ( 0.048120  0.051365  0.016245)
 54:   1064.26   0.076330  385.74  0.022381  (-0.046506 -0.140961  0.018668)
 55:   1073.03   0.054675  276.31  0.015901  ( 0.015450  0.099422  0.076010)
 56:   1097.52   0.047902  242.08  0.013620  ( 0.020776 -0.071278  0.090045)
 57:   1106.59   0.025800  130.39  0.007276  ( 0.023666 -0.081198  0.011079)
 58:   1109.28   0.067896  343.12  0.019100  (-0.009713 -0.126557  0.054677)
 59:   1122.47   0.021465  108.48  0.005968  ( 0.006346  0.074775  0.018332)
 60:   1131.30   0.018398   92.98  0.005075  (-0.008261  0.002221  0.070724)
 61:   1138.55   0.140424  709.64  0.038489  ( 0.037567  0.045322  0.187145)
 62:   1146.20   0.002625   13.27  0.000715  (-0.008409 -0.025333 -0.001538)
 63:   1147.16   0.134354  678.97  0.036549  ( 0.063530 -0.071435 -0.165559)
 64:   1185.38   0.016773   84.76  0.004416  ( 0.002378 -0.001415  0.066393)
 65:   1197.29   0.000969    4.90  0.000253  (-0.008832 -0.012075 -0.005361)
 66:   1252.31   0.003092   15.63  0.000771  ( 0.014055 -0.018209 -0.015539)
 67:   1274.31   0.007307   36.92  0.001789  ( 0.035627  0.021978 -0.006079)
 68:   1321.47   0.037216  188.07  0.008789  ( 0.062366 -0.053734  0.044852)
 69:   1353.90   0.060493  305.71  0.013943  ( 0.107873  0.023015 -0.042154)
 70:   1399.87   0.015204   76.84  0.003389  ( 0.052050 -0.013965 -0.022026)
 71:   1724.32   0.156364  790.20  0.028298  ( 0.037065 -0.154199 -0.056100)

--------------------------
THERMOCHEMISTRY AT 298.15K
--------------------------

Temperature         ...   298.15 K
Pressure            ...     1.00 atm
Total Mass          ...   394.06 AMU
Quasi RRHO          ...     True
Cut-Off Frequency   ...     1.00 cm^-1

Throughout the following assumptions are being made:
  (1) The electronic state is orbitally nondegenerate
      but the spin degeneracy is treated
  (2) There are no thermally accessible electronically excited states
  (3) Hindered rotations indicated by low frequency modes are not
      treated as such but are treated as vibrations and this may
      cause some error
  (4) All equations used are the standard statistical mechanics
      equations for an ideal gas
  (5) All vibrations are strictly harmonic

freq.      18.91  E(vib)   ...       0.57
freq.      20.43  E(vib)   ...       0.56
freq.      24.86  E(vib)   ...       0.56
freq.      38.92  E(vib)   ...       0.54
freq.      40.56  E(vib)   ...       0.54
freq.      53.24  E(vib)   ...       0.52
freq.      60.23  E(vib)   ...       0.51
freq.      70.02  E(vib)   ...       0.50
freq.     100.17  E(vib)   ...       0.46
freq.     124.01  E(vib)   ...       0.43
freq.     145.33  E(vib)   ...       0.41
freq.     161.98  E(vib)   ...       0.39
freq.     186.06  E(vib)   ...       0.37
freq.     187.49  E(vib)   ...       0.36
freq.     202.45  E(vib)   ...       0.35
freq.     218.63  E(vib)   ...       0.33
freq.     238.45  E(vib)   ...       0.32
freq.     241.25  E(vib)   ...       0.31
freq.     251.99  E(vib)   ...       0.30
freq.     264.33  E(vib)   ...       0.29
freq.     296.37  E(vib)   ...       0.27
freq.     305.81  E(vib)   ...       0.26
freq.     316.21  E(vib)   ...       0.25
freq.     340.03  E(vib)   ...       0.23
freq.     343.75  E(vib)   ...       0.23
freq.     354.32  E(vib)   ...       0.22
freq.     360.00  E(vib)   ...       0.22
freq.     364.01  E(vib)   ...       0.22
freq.     396.37  E(vib)   ...       0.20
freq.     424.34  E(vib)   ...       0.18
freq.     458.25  E(vib)   ...       0.16
freq.     484.45  E(vib)   ...       0.15
freq.     525.13  E(vib)   ...       0.13
freq.     537.51  E(vib)   ...       0.12
freq.     542.54  E(vib)   ...       0.12
freq.     553.81  E(vib)   ...       0.12
freq.     568.71  E(vib)   ...       0.11
freq.     592.31  E(vib)   ...       0.10
freq.     619.41  E(vib)   ...       0.09
freq.     642.75  E(vib)   ...       0.09
freq.     661.51  E(vib)   ...       0.08
freq.     704.97  E(vib)   ...       0.07
freq.     706.50  E(vib)   ...       0.07
freq.     759.15  E(vib)   ...       0.06
freq.     781.74  E(vib)   ...       0.05
freq.     864.56  E(vib)   ...       0.04
freq.     983.52  E(vib)   ...       0.02
freq.    1046.90  E(vib)   ...       0.02
freq.    1064.26  E(vib)   ...       0.02
freq.    1073.03  E(vib)   ...       0.02
freq.    1097.52  E(vib)   ...       0.02
freq.    1106.59  E(vib)   ...       0.02
freq.    1109.28  E(vib)   ...       0.02
freq.    1122.47  E(vib)   ...       0.01
freq.    1131.30  E(vib)   ...       0.01
freq.    1138.55  E(vib)   ...       0.01
freq.    1146.20  E(vib)   ...       0.01
freq.    1147.16  E(vib)   ...       0.01
freq.    1185.38  E(vib)   ...       0.01
freq.    1197.29  E(vib)   ...       0.01
freq.    1252.31  E(vib)   ...       0.01
freq.    1274.31  E(vib)   ...       0.01
freq.    1321.47  E(vib)   ...       0.01
freq.    1353.90  E(vib)   ...       0.01
freq.    1399.87  E(vib)   ...       0.00
freq.    1724.32  E(vib)   ...       0.00

------------
INNER ENERGY
------------

The inner energy is: U= E(el) + E(ZPE) + E(vib) + E(rot) + E(trans)
    E(el)   - is the total energy from the electronic structure calculation
              = E(kin-el) + E(nuc-el) + E(el-el) + E(nuc-nuc)
    E(ZPE)  - the the zero temperature vibrational energy from the frequency calculation
    E(vib)  - the the finite temperature correction to E(ZPE) due to population
              of excited vibrational states
    E(rot)  - is the rotational thermal energy
    E(trans)- is the translational thermal energy

Summary of contributions to the inner energy U:
Electronic energy                ...  -1853.95319908 Eh
Zero point energy                ...      0.09119388 Eh      57.22 kcal/mol
Thermal vibrational correction   ...      0.02026351 Eh      12.72 kcal/mol
Thermal rotational correction    ...      0.00141627 Eh       0.89 kcal/mol
Thermal translational correction ...      0.00141627 Eh       0.89 kcal/mol
-----------------------------------------------------------------------
Total thermal energy                  -1853.83890915 Eh

Summary of corrections to the electronic energy:
(perhaps to be used in another calculation)
Total thermal correction                  0.02309605 Eh      14.49 kcal/mol
Non-thermal (ZPE) correction              0.09119388 Eh      57.22 kcal/mol
-----------------------------------------------------------------------
Total correction                          0.11428993 Eh      71.72 kcal/mol

--------
ENTHALPY
--------

The enthalpy is H = U + kB*T
                kB is Boltzmann's constant
Total thermal energy              ...  -1853.83890915 Eh
Thermal Enthalpy correction       ...      0.00094421 Eh       0.59 kcal/mol
-----------------------------------------------------------------------
Total Enthalpy                    ...  -1853.83796494 Eh

Note: Only C1 symmetry has been detected, increase convergence thresholds
      if your molecule has a higher symmetry. Symmetry factor of 1.0 is
      used for the rotational entropy correction.

Note: Rotational entropy computed according to Herzberg
Infrared and Raman Spectra, Chapter V,1, Van Nostrand Reinhold, 1945
Point Group:  C1, Symmetry Number:   1
Rotational constants in cm-1:     0.020824     0.004047     0.003976

Vibrational entropy computed according to the QRRHO of S. Grimme
Chem.Eur.J. 2012 18 9955 using a reference frequency of 100.0 cm-1

-------
ENTROPY
-------

The entropy contributions are T*S = T*(S(el)+S(vib)+S(rot)+S(trans))
     S(el)   - electronic entropy
     S(vib)  - vibrational entropy
     S(rot)  - rotational entropy
     S(trans)- translational entropy
The entropies will be listed as multiplied by the temperature to get
units of energy

Electronic entropy                ...      0.00065446 Eh      0.41 kcal/mol
Vibrational entropy               ...      0.03706515 Eh     23.26 kcal/mol
Rotational entropy                ...      0.01654925 Eh     10.38 kcal/mol
Translational entropy             ...      0.02081341 Eh     13.06 kcal/mol
-----------------------------------------------------------------------

                             ****ORCA TERMINATED NORMALLY****
TOTAL RUN TIME: 0 days 0 hours 23 minutes 33 seconds 666 msec
