                         Program Version 6.0.1  -  RELEASE   -
|  1> !r2scanh def2-TZVP opt d3 TightSCF SlowConv defgrid2
|  2>
|  3> %pal
|  4> nprocs 20
|  5> end
|  6>
|  7> %scf
|  8> MaxIter 1500
|  9> end
| 10>
| 11> %maxcore 8000
| 12>
| 13> !CPCM
| 14> %cpcm smd true
| 15> SMDsolvent "ACETONITRILE"
| 16> end
| 17>
| 18> * xyz -2 2
| 19> 6        4.790427000     -0.033865800     -0.529943200
| 20> 8        5.449345000     -1.206924000     -0.894594600
| 21> 8        4.978223000      1.323071000     -0.737377200
| 22> 6        3.506687600     -0.338741600      0.376153800
| 23> 6        2.222300000      0.400524800     -0.110681600
| 24> 6        0.900506800     -0.386389800      0.175703000
| 25> 6       -0.395261200      0.487294000      0.065549000
| 26> 6       -1.705693600     -0.364773800     -0.068373600
| 27> 6       -3.005136200      0.445344800      0.258164000
| 28> 6       -4.319880200     -0.214526000     -0.270540800
| 29> 9        3.211587400     -1.692050400      0.412735200
| 30> 9        3.741061800      0.055285800      1.689948800
| 31> 9        2.125696800      1.616867800      0.483236600
| 32> 9        2.314152400      0.589704000     -1.455769200
| 33> 9        0.794028800     -1.413561400     -0.700839000
| 34> 9        0.958350600     -0.884509000      1.435093400
| 35> 9       -0.498373400      1.260265600      1.173340200
| 36> 9       -0.299075000      1.289512600     -1.020910800
| 37> 9       -1.641790400     -1.418189000      0.779523800
| 38> 9       -1.792381400     -0.831391600     -1.336863600
| 39> 9       -2.918792200      1.679227200     -0.295171200
| 40> 9       -3.119771000      0.573779800      1.598579800
| 41> 9       -4.383115600     -1.504377600      0.089127600
| 42> 9       -5.365669800      0.430528600      0.260394200
| 43> 9       -4.396020400     -0.128550600     -1.602941800
| 44> *
| 45>
| 46>                          ****END OF INPUT****
 Total Charge           Charge          ....   -2
 Multiplicity           Mult            ....    2
 Number of Electrons    NEL             ....  201
Dispersion correction           -0.008399133
FINAL SINGLE POINT ENERGY     -1952.984531274034
Dispersion correction             ... done (  0.0 sec)
Dispersion correction           -0.008401522
FINAL SINGLE POINT ENERGY     -1953.019506502816
Dispersion correction             ... done (  0.0 sec)
Dispersion correction           -0.008334966
FINAL SINGLE POINT ENERGY     -1953.039380918447
Dispersion correction             ... done (  0.1 sec)
FINAL SINGLE POINT ENERGY     -1953.046496920955
FINAL SINGLE POINT ENERGY     -1953.049706480651
FINAL SINGLE POINT ENERGY     -1953.051448537769
FINAL SINGLE POINT ENERGY     -1953.053395501940
FINAL SINGLE POINT ENERGY     -1953.054070810027
FINAL SINGLE POINT ENERGY     -1953.054789932204
FINAL SINGLE POINT ENERGY     -1953.055216912989
FINAL SINGLE POINT ENERGY     -1953.055329280413
FINAL SINGLE POINT ENERGY     -1953.055378476196
Dispersion correction             ... done (  0.0 sec)
Dispersion correction           -0.008173429
FINAL SINGLE POINT ENERGY     -1953.055389349014
Dispersion correction             ... done (  0.0 sec)
Dispersion correction           -0.008172985
FINAL SINGLE POINT ENERGY     -1953.055393229821
Dispersion correction             ... done (  0.0 sec)
                    ***********************HURRAY********************

CARTESIAN COORDINATES (ANGSTROEM)
---------------------------------
  C      4.955752    0.205942   -0.280283
  O      5.418980   -0.259481   -1.331315
  O      5.331398    1.156578    0.424017
  C      3.653988   -0.490537    0.244906
  C      2.364177    0.309860   -0.063708
  C      0.991304   -0.411805    0.034002
  C     -0.359461    0.360457    0.029217
  C     -1.807398   -0.243389   -0.012722
  C     -3.175673    0.495433   -0.012394
  C     -4.537572   -0.214907   -0.044132
  F      3.503315   -1.736449   -0.293328
  F      3.712742   -0.670037    1.597118
  F      2.332631    1.372951    0.782487
  F      2.473088    0.794962   -1.329636
  F      0.939952   -1.278015   -1.023741
  F      1.014610   -1.140377    1.191779
  F     -0.339648    1.142143    1.164056
  F     -0.292853    1.177576   -1.087952
  F     -1.867011   -1.066287    1.104613
  F     -1.836188   -1.017535   -1.158810
  F     -3.181217    1.311969   -1.114735
  F     -3.207398    1.269483    1.118368
  F     -4.683073   -1.005658    1.022949
  F     -5.600317    0.634091   -0.042086
  F     -4.652722   -0.963413   -1.145128

 Multiplicity           Mult            ....    2
 Number of Electrons    NEL             ....  201
 Basis Dimension        Dim             ....  775

ORBITAL ENERGIES
----------------
                 SPIN UP ORBITALS
  NO   OCC          E(Eh)            E(eV)
   0   1.0000     -24.705687      -672.2759
   1   1.0000     -24.705654      -672.2750
   2   1.0000     -24.696900      -672.0368
   3   1.0000     -24.686657      -671.7581
   4   1.0000     -24.686187      -671.7453
   5   1.0000     -24.686082      -671.7424
   6   1.0000     -24.683548      -671.6735
   7   1.0000     -24.682217      -671.6373
   8   1.0000     -24.679995      -671.5768
   9   1.0000     -24.672468      -671.3720
  10   1.0000     -24.672219      -671.3652
  11   1.0000     -24.671056      -671.3336
  12   1.0000     -24.671023      -671.3327
  13   1.0000     -24.670626      -671.3219
  14   1.0000     -24.669278      -671.2852
  15   1.0000     -19.037603      -518.0395
  16   1.0000     -19.036697      -518.0148
  17   1.0000     -10.403139      -283.0838
  18   1.0000     -10.330653      -281.1114
  19   1.0000     -10.328275      -281.0467
  20   1.0000     -10.324810      -280.9524
  21   1.0000     -10.315202      -280.6909
  22   1.0000     -10.314278      -280.6658
  23   1.0000     -10.304601      -280.4025
  24   1.0000     -10.221489      -278.1408
  25   1.0000      -1.325345       -36.0645
  26   1.0000      -1.280953       -34.8565
  27   1.0000      -1.269799       -34.5530
  28   1.0000      -1.261107       -34.3165
  29   1.0000      -1.251184       -34.0464
  30   1.0000      -1.248846       -33.9828
  31   1.0000      -1.240763       -33.7629
  32   1.0000      -1.238762       -33.7084
  33   1.0000      -1.228106       -33.4185
  34   1.0000      -1.217605       -33.1327
  35   1.0000      -1.213778       -33.0286
  36   1.0000      -1.206452       -32.8292
  37   1.0000      -1.198558       -32.6144
  38   1.0000      -1.193422       -32.4747
  39   1.0000      -1.191290       -32.4167
  40   1.0000      -1.016615       -27.6635
  41   1.0000      -0.931150       -25.3379
  42   1.0000      -0.788556       -21.4577
  43   1.0000      -0.782043       -21.2805
  44   1.0000      -0.752175       -20.4677
  45   1.0000      -0.719287       -19.5728
  46   1.0000      -0.679846       -18.4995
  47   1.0000      -0.647632       -17.6230
  48   1.0000      -0.624330       -16.9889
  49   1.0000      -0.594208       -16.1692
  50   1.0000      -0.592579       -16.1249
  51   1.0000      -0.590855       -16.0780
  52   1.0000      -0.578298       -15.7363
  53   1.0000      -0.573102       -15.5949
  54   1.0000      -0.570340       -15.5197
  55   1.0000      -0.557800       -15.1785
  56   1.0000      -0.554600       -15.0914
  57   1.0000      -0.545879       -14.8541
  58   1.0000      -0.543582       -14.7916
  59   1.0000      -0.535965       -14.5844
  60   1.0000      -0.529795       -14.4164
  61   1.0000      -0.525680       -14.3045
  62   1.0000      -0.519297       -14.1308
  63   1.0000      -0.511245       -13.9117
  64   1.0000      -0.462950       -12.5975
  65   1.0000      -0.462781       -12.5929
  66   1.0000      -0.456709       -12.4277
  67   1.0000      -0.447331       -12.1725
  68   1.0000      -0.444525       -12.0961
  69   1.0000      -0.441873       -12.0240
  70   1.0000      -0.437297       -11.8995
  71   1.0000      -0.435247       -11.8437
  72   1.0000      -0.431997       -11.7552
  73   1.0000      -0.430976       -11.7275
  74   1.0000      -0.428172       -11.6511
  75   1.0000      -0.424771       -11.5586
  76   1.0000      -0.421982       -11.4827
  77   1.0000      -0.415640       -11.3101
  78   1.0000      -0.414748       -11.2859
  79   1.0000      -0.408995       -11.1293
  80   1.0000      -0.403562       -10.9815
  81   1.0000      -0.402355       -10.9486
  82   1.0000      -0.401701       -10.9308
  83   1.0000      -0.394206       -10.7269
  84   1.0000      -0.392909       -10.6916
  85   1.0000      -0.390905       -10.6371
  86   1.0000      -0.387744       -10.5511
  87   1.0000      -0.383162       -10.4264
  88   1.0000      -0.381563       -10.3828
  89   1.0000      -0.380861       -10.3638
  90   1.0000      -0.377205       -10.2643
  91   1.0000      -0.373277       -10.1574
  92   1.0000      -0.365066        -9.9340
  93   1.0000      -0.363624        -9.8947
  94   1.0000      -0.353642        -9.6231
  95   1.0000      -0.329966        -8.9788
  96   1.0000      -0.298341        -8.1183
  97   1.0000      -0.231195        -6.2911
  98   1.0000      -0.215153        -5.8546
  99   1.0000      -0.212615        -5.7856
 100   1.0000      -0.066304        -1.8042
 101   0.0000       0.023199         0.6313
 102   0.0000       0.042620         1.1598
 103   0.0000       0.056294         1.5318
 104   0.0000       0.073525         2.0007
 105   0.0000       0.100287         2.7290

                 SPIN DOWN ORBITALS
  NO   OCC          E(Eh)            E(eV)
   0   1.0000     -24.705646      -672.2748
   1   1.0000     -24.705616      -672.2740
   2   1.0000     -24.695385      -671.9956
   3   1.0000     -24.686179      -671.7451
   4   1.0000     -24.686004      -671.7403
   5   1.0000     -24.685685      -671.7316
   6   1.0000     -24.683379      -671.6689
   7   1.0000     -24.681913      -671.6290
   8   1.0000     -24.679629      -671.5669
   9   1.0000     -24.671728      -671.3518
  10   1.0000     -24.671600      -671.3484
  11   1.0000     -24.670567      -671.3203
  12   1.0000     -24.670367      -671.3148
  13   1.0000     -24.670208      -671.3105
  14   1.0000     -24.669183      -671.2826
  15   1.0000     -19.037370      -518.0332
  16   1.0000     -19.036493      -518.0093
  17   1.0000     -10.401429      -283.0373
  18   1.0000     -10.328053      -281.0406
  19   1.0000     -10.327094      -281.0145
  20   1.0000     -10.322528      -280.8903
  21   1.0000     -10.311321      -280.5853
  22   1.0000     -10.310643      -280.5669
  23   1.0000     -10.304067      -280.3879
  24   1.0000     -10.221302      -278.1358
  25   1.0000      -1.324166       -36.0324
  26   1.0000      -1.279891       -34.8276
  27   1.0000      -1.267988       -34.5037
  28   1.0000      -1.259988       -34.2860
  29   1.0000      -1.250750       -34.0346
  30   1.0000      -1.247277       -33.9401
  31   1.0000      -1.240626       -33.7592
  32   1.0000      -1.236853       -33.6565
  33   1.0000      -1.225760       -33.3546
  34   1.0000      -1.217104       -33.1191
  35   1.0000      -1.212850       -33.0033
  36   1.0000      -1.205836       -32.8125
  37   1.0000      -1.197404       -32.5830
  38   1.0000      -1.193220       -32.4692
  39   1.0000      -1.190036       -32.3825
  40   1.0000      -1.016207       -27.6524
  41   1.0000      -0.930754       -25.3271
  42   1.0000      -0.778237       -21.1769
  43   1.0000      -0.773400       -21.0453
  44   1.0000      -0.742518       -20.2050
  45   1.0000      -0.711833       -19.3700
  46   1.0000      -0.675486       -18.3809
  47   1.0000      -0.644905       -17.5488
  48   1.0000      -0.621806       -16.9202
  49   1.0000      -0.593277       -16.1439
  50   1.0000      -0.588769       -16.0212
  51   1.0000      -0.586239       -15.9524
  52   1.0000      -0.575968       -15.6729
  53   1.0000      -0.569742       -15.5035
  54   1.0000      -0.568356       -15.4658
  55   1.0000      -0.556273       -15.1370
  56   1.0000      -0.550187       -14.9713
  57   1.0000      -0.544005       -14.8031
  58   1.0000      -0.539797       -14.6886
  59   1.0000      -0.534461       -14.5434
  60   1.0000      -0.528728       -14.3874
  61   1.0000      -0.520478       -14.1629
  62   1.0000      -0.516614       -14.0578
  63   1.0000      -0.510284       -13.8855
  64   1.0000      -0.462314       -12.5802
  65   1.0000      -0.460661       -12.5352
  66   1.0000      -0.456000       -12.4084
  67   1.0000      -0.446787       -12.1577
  68   1.0000      -0.443845       -12.0776
  69   1.0000      -0.441540       -12.0149
  70   1.0000      -0.436836       -11.8869
  71   1.0000      -0.434397       -11.8205
  72   1.0000      -0.430910       -11.7256
  73   1.0000      -0.430116       -11.7040
  74   1.0000      -0.427598       -11.6355
  75   1.0000      -0.423757       -11.5310
  76   1.0000      -0.421215       -11.4618
  77   1.0000      -0.414475       -11.2784
  78   1.0000      -0.413599       -11.2546
  79   1.0000      -0.408453       -11.1146
  80   1.0000      -0.402304       -10.9472
  81   1.0000      -0.401371       -10.9219
  82   1.0000      -0.401148       -10.9158
  83   1.0000      -0.393115       -10.6972
  84   1.0000      -0.391549       -10.6546
  85   1.0000      -0.390306       -10.6208
  86   1.0000      -0.385816       -10.4986
  87   1.0000      -0.380956       -10.3663
  88   1.0000      -0.378833       -10.3086
  89   1.0000      -0.377475       -10.2716
  90   1.0000      -0.375961       -10.2304
  91   1.0000      -0.369378       -10.0513
  92   1.0000      -0.362978        -9.8771
  93   1.0000      -0.357299        -9.7226
  94   1.0000      -0.347420        -9.4538
  95   1.0000      -0.325430        -8.8554
  96   1.0000      -0.295654        -8.0452
  97   1.0000      -0.230256        -6.2656
  98   1.0000      -0.214140        -5.8271
  99   1.0000      -0.212316        -5.7774
 100   0.0000      -0.008336        -0.2268
 101   0.0000       0.032754         0.8913
 102   0.0000       0.050342         1.3699
 103   0.0000       0.064326         1.7504
 104   0.0000       0.082939         2.2569

MULLIKEN ATOMIC CHARGES AND SPIN POPULATIONS
--------------------------------------------
   0 C :    0.211547    0.007651
   1 O :   -0.530795    0.006110
   2 O :   -0.538089    0.005648
   3 C :    0.352752    0.024097
   4 C :    0.260864    0.059574
   5 C :    0.281610    0.136430
   6 C :    0.242936    0.241673
   7 C :    0.209996    0.254439
   8 C :    0.283735    0.143273
   9 C :    0.439324    0.079705
  10 F :   -0.222483    0.000606
  11 F :   -0.226560    0.000459
  12 F :   -0.206735    0.001025
  13 F :   -0.210402    0.000303
  14 F :   -0.215984    0.001413
  15 F :   -0.216968    0.000758
  16 F :   -0.229008    0.002954
  17 F :   -0.233989    0.003400
  18 F :   -0.236374    0.004948
  19 F :   -0.232219    0.004370
  20 F :   -0.213532    0.003347
  21 F :   -0.212759    0.003196
  22 F :   -0.181453   -0.001014
  23 F :   -0.193872    0.016683
  24 F :   -0.181542   -0.001047
Sum of atomic charges         :   -2.0000000

LOEWDIN ATOMIC CHARGES AND SPIN POPULATIONS
-------------------------------------------
   0 C :   -0.699980    0.009880
   1 O :   -0.067715    0.005890
   2 O :   -0.070050    0.005304
   3 C :   -0.453811    0.027374
   4 C :   -0.472625    0.060426
   5 C :   -0.481763    0.127685
   6 C :   -0.486739    0.207242
   7 C :   -0.484751    0.222284
   8 C :   -0.494780    0.151854
   9 C :   -0.667981    0.067987
  10 F :    0.151103    0.001562
  11 F :    0.148656    0.001292
  12 F :    0.179455    0.002780
  13 F :    0.180183    0.001804
  14 F :    0.160819    0.006369
  15 F :    0.162631    0.005509
  16 F :    0.139344    0.011091
  17 F :    0.129513    0.011810
  18 F :    0.124704    0.013897
  19 F :    0.132821    0.012909
  20 F :    0.157114    0.008639
  21 F :    0.158875    0.008270
  22 F :    0.199663    0.001190
  23 F :    0.155830    0.025818
  24 F :    0.199486    0.001134

  Mayer bond orders larger than 0.100000
B(  0-C ,  1-O ) :   1.8401 B(  0-C ,  2-O ) :   1.8286 B(  0-C ,  3-C ) :   0.8335
B(  3-C ,  4-C ) :   0.9118 B(  3-C , 10-F ) :   1.0324 B(  3-C , 11-F ) :   1.0211
B(  4-C ,  5-C ) :   0.8818 B(  4-C , 12-F ) :   1.0545 B(  4-C , 13-F ) :   1.0439
B(  5-C ,  6-C ) :   0.8940 B(  5-C , 14-F ) :   1.0249 B(  5-C , 15-F ) :   1.0253
B(  6-C ,  7-C ) :   0.8986 B(  6-C , 16-F ) :   0.9968 B(  6-C , 17-F ) :   0.9844
B(  7-C ,  8-C ) :   0.9212 B(  7-C , 18-F ) :   0.9826 B(  7-C , 19-F ) :   0.9894
B(  8-C ,  9-C ) :   0.9478 B(  8-C , 20-F ) :   1.0215 B(  8-C , 21-F ) :   1.0219
B(  9-C , 22-F ) :   1.1214 B(  9-C , 23-F ) :   1.0694 B(  9-C , 24-F ) :   1.1208

Dispersion correction           -0.008172246
FINAL SINGLE POINT ENERGY     -1953.055394898641

DIPOLE MOMENT
-------------

Method             : SCF
Type of density    : Electron Density
Multiplicity       :   2
Irrep              :   0
Energy             : -1953.0472226530757780 Eh
Relativity type    :
Basis              : AO
                                X                 Y                 Z
Electronic contribution:    -17.610944060      -1.602287359       1.367454738
Nuclear contribution   :     10.147507406       0.838690536      -0.770063719
                        -----------------------------------------
Total Dipole Moment    :     -7.463436654      -0.763596823       0.597391019
                        -----------------------------------------
Magnitude (a.u.)       :      7.526143954
Magnitude (Debye)      :     19.129937651

Rotational constants in cm-1:             0.021941             0.003421             0.003394
Rotational constants in MHz :           657.767933           102.560136           101.740170

                             ****ORCA TERMINATED NORMALLY****
TOTAL RUN TIME: 0 days 0 hours 27 minutes 29 seconds 296 msec
