                         Program Version 6.0.1  -  RELEASE   -
|  1> !B3LYP def2-TZVP freq d3 TightSCF SlowConv defgrid2
|  2>
|  3> %pal
|  4> nprocs 20
|  5> end
|  6>
|  7> %scf
|  8> MaxIter 1500
|  9> end
| 10>
| 11> %maxcore 8000
| 12>
| 13> !CPCM
| 14> %cpcm smd true
| 15> SMDsolvent "ACETONITRILE"
| 16> end
| 17>
| 18> * xyz 0 2
| 19> 6        4.465561000      0.356012000      0.248830000
| 20> 8        5.258925000     -0.346807000     -0.544098000
| 21> 8        4.653577000      1.460735000      0.669999000
| 22> 6        3.171685000     -0.434316000      0.592154000
| 23> 6        2.025272000     -0.089688000     -0.411402000
| 24> 6        0.774047000     -1.028605000     -0.338413000
| 25> 6       -0.411217000     -0.465418000     -1.058306000
| 26> 6       -1.858930000     -0.675158000     -0.714865000
| 27> 6       -2.461253000      0.491939000      0.132697000
| 28> 6       -3.975495000      0.384850000      0.488997000
| 29> 9        3.399182000     -1.765950000      0.569459000
| 30> 9        2.782060000     -0.088440000      1.835705000
| 31> 9        1.628906000      1.177822000     -0.166106000
| 32> 9        2.529761000     -0.146150000     -1.664044000
| 33> 9        1.129407000     -2.235184000     -0.871049000
| 34> 9        0.459553000     -1.238284000      0.960847000
| 35> 9       -0.174912000      0.202583000     -2.171929000
| 36> 9       -2.006786000     -1.827385000     -0.021089000
| 37> 9       -2.568411000     -0.763618000     -1.866893000
| 38> 9       -2.282485000      1.639074000     -0.556471000
| 39> 9       -1.774782000      0.567900000      1.290723000
| 40> 9       -4.220816000     -0.718527000      1.197334000
| 41> 9       -4.317052000      1.448211000      1.223417000
| 42> 9       -4.726460000      0.370920000     -0.612378000
| 43> 1        6.053567000      0.182000000     -0.758635000
| 44> *
| 45>
| 46>                          ****END OF INPUT****

CARTESIAN COORDINATES (ANGSTROEM)
---------------------------------
  C      4.465561    0.356012    0.248830
  O      5.258925   -0.346807   -0.544098
  O      4.653577    1.460735    0.669999
  C      3.171685   -0.434316    0.592154
  C      2.025272   -0.089688   -0.411402
  C      0.774047   -1.028605   -0.338413
  C     -0.411217   -0.465418   -1.058306
  C     -1.858930   -0.675158   -0.714865
  C     -2.461253    0.491939    0.132697
  C     -3.975495    0.384850    0.488997
  F      3.399182   -1.765950    0.569459
  F      2.782060   -0.088440    1.835705
  F      1.628906    1.177822   -0.166106
  F      2.529761   -0.146150   -1.664044
  F      1.129407   -2.235184   -0.871049
  F      0.459553   -1.238284    0.960847
  F     -0.174912    0.202583   -2.171929
  F     -2.006786   -1.827385   -0.021089
  F     -2.568411   -0.763618   -1.866893
  F     -2.282485    1.639074   -0.556471
  F     -1.774782    0.567900    1.290723
  F     -4.220816   -0.718527    1.197334
  F     -4.317052    1.448211    1.223417
  F     -4.726460    0.370920   -0.612378
  H      6.053567    0.182000   -0.758635

 Total Charge           Charge          ....    0
 Multiplicity           Mult            ....    2
 Number of Electrons    NEL             ....  191
 Basis Dimension        Dim             ....  750

ORBITAL ENERGIES
----------------
                 SPIN UP ORBITALS
  NO   OCC          E(Eh)            E(eV)
   0   1.0000     -24.760326      -673.7627
   1   1.0000     -24.744353      -673.3281
   2   1.0000     -24.744318      -673.3271
   3   1.0000     -24.743003      -673.2913
   4   1.0000     -24.742900      -673.2885
   5   1.0000     -24.742885      -673.2881
   6   1.0000     -24.741861      -673.2603
   7   1.0000     -24.741656      -673.2547
   8   1.0000     -24.739810      -673.2044
   9   1.0000     -24.739534      -673.1969
  10   1.0000     -24.738005      -673.1553
  11   1.0000     -24.733674      -673.0375
  12   1.0000     -24.732225      -672.9981
  13   1.0000     -24.731339      -672.9739
  14   1.0000     -19.207118      -522.6523
  15   1.0000     -19.154215      -521.2127
  16   1.0000     -10.461083      -284.6605
  17   1.0000     -10.408443      -283.2281
  18   1.0000     -10.406306      -283.1700
  19   1.0000     -10.403791      -283.1015
  20   1.0000     -10.402661      -283.0708
  21   1.0000     -10.395638      -282.8797
  22   1.0000     -10.346003      -281.5290
  23   1.0000     -10.330513      -281.1076
  24   1.0000      -1.353088       -36.8194
  25   1.0000      -1.325445       -36.0672
  26   1.0000      -1.319183       -35.8968
  27   1.0000      -1.306896       -35.5624
  28   1.0000      -1.301803       -35.4239
  29   1.0000      -1.300720       -35.3944
  30   1.0000      -1.296618       -35.2828
  31   1.0000      -1.265627       -34.4395
  32   1.0000      -1.259724       -34.2788
  33   1.0000      -1.258151       -34.2360
  34   1.0000      -1.254664       -34.1411
  35   1.0000      -1.247567       -33.9480
  36   1.0000      -1.243444       -33.8358
  37   1.0000      -1.242851       -33.8197
  38   1.0000      -1.146521       -31.1984
  39   1.0000      -1.062343       -28.9078
  40   1.0000      -0.861655       -23.4468
  41   1.0000      -0.834463       -22.7069
  42   1.0000      -0.813870       -22.1465
  43   1.0000      -0.779492       -21.2111
  44   1.0000      -0.734916       -19.9981
  45   1.0000      -0.704556       -19.1719
  46   1.0000      -0.676113       -18.3980
  47   1.0000      -0.667998       -18.1772
  48   1.0000      -0.648002       -17.6330
  49   1.0000      -0.644248       -17.5309
  50   1.0000      -0.638642       -17.3783
  51   1.0000      -0.633515       -17.2388
  52   1.0000      -0.630300       -17.1513
  53   1.0000      -0.621498       -16.9118
  54   1.0000      -0.614391       -16.7184
  55   1.0000      -0.611691       -16.6450
  56   1.0000      -0.606685       -16.5087
  57   1.0000      -0.599390       -16.3102
  58   1.0000      -0.591335       -16.0911
  59   1.0000      -0.588405       -16.0113
  60   1.0000      -0.580307       -15.7910
  61   1.0000      -0.572510       -15.5788
  62   1.0000      -0.540235       -14.7005
  63   1.0000      -0.520692       -14.1687
  64   1.0000      -0.512751       -13.9527
  65   1.0000      -0.507832       -13.8188
  66   1.0000      -0.506103       -13.7718
  67   1.0000      -0.504755       -13.7351
  68   1.0000      -0.503659       -13.7052
  69   1.0000      -0.495447       -13.4818
  70   1.0000      -0.491991       -13.3877
  71   1.0000      -0.488618       -13.2960
  72   1.0000      -0.486560       -13.2400
  73   1.0000      -0.483553       -13.1582
  74   1.0000      -0.478937       -13.0325
  75   1.0000      -0.476575       -12.9683
  76   1.0000      -0.474243       -12.9048
  77   1.0000      -0.465764       -12.6741
  78   1.0000      -0.464444       -12.6382
  79   1.0000      -0.462286       -12.5794
  80   1.0000      -0.459907       -12.5147
  81   1.0000      -0.458271       -12.4702
  82   1.0000      -0.452774       -12.3206
  83   1.0000      -0.446734       -12.1562
  84   1.0000      -0.446406       -12.1473
  85   1.0000      -0.444180       -12.0867
  86   1.0000      -0.441886       -12.0243
  87   1.0000      -0.441139       -12.0040
  88   1.0000      -0.437379       -11.9017
  89   1.0000      -0.430056       -11.7024
  90   1.0000      -0.415239       -11.2992
  91   1.0000      -0.383304       -10.4302
  92   1.0000      -0.364890        -9.9292
  93   1.0000      -0.360005        -9.7962
  94   1.0000      -0.318216        -8.6591
  95   1.0000      -0.276003        -7.5104
  96   0.0000      -0.051774        -1.4088
  97   0.0000       0.001177         0.0320
  98   0.0000       0.022410         0.6098
  99   0.0000       0.034730         0.9450
 100   0.0000       0.043960         1.1962

                 SPIN DOWN ORBITALS
  NO   OCC          E(Eh)            E(eV)
   0   1.0000     -24.755750      -673.6382
   1   1.0000     -24.744352      -673.3280
   2   1.0000     -24.744318      -673.3271
   3   1.0000     -24.742974      -673.2906
   4   1.0000     -24.742840      -673.2869
   5   1.0000     -24.742797      -673.2857
   6   1.0000     -24.741786      -673.2582
   7   1.0000     -24.741577      -673.2525
   8   1.0000     -24.739334      -673.1915
   9   1.0000     -24.739195      -673.1877
  10   1.0000     -24.737438      -673.1399
  11   1.0000     -24.733672      -673.0374
  12   1.0000     -24.732222      -672.9980
  13   1.0000     -24.729731      -672.9302
  14   1.0000     -19.207117      -522.6522
  15   1.0000     -19.154205      -521.2124
  16   1.0000     -10.460960      -284.6572
  17   1.0000     -10.409320      -283.2520
  18   1.0000     -10.407058      -283.1905
  19   1.0000     -10.403137      -283.0837
  20   1.0000     -10.402443      -283.0649
  21   1.0000     -10.395624      -282.8793
  22   1.0000     -10.345996      -281.5289
  23   1.0000     -10.316030      -280.7134
  24   1.0000      -1.352955       -36.8158
  25   1.0000      -1.324221       -36.0339
  26   1.0000      -1.318278       -35.8722
  27   1.0000      -1.304913       -35.5085
  28   1.0000      -1.301072       -35.4040
  29   1.0000      -1.299830       -35.3702
  30   1.0000      -1.289097       -35.0781
  31   1.0000      -1.265481       -34.4355
  32   1.0000      -1.259562       -34.2744
  33   1.0000      -1.257715       -34.2242
  34   1.0000      -1.254293       -34.1311
  35   1.0000      -1.246611       -33.9220
  36   1.0000      -1.242994       -33.8236
  37   1.0000      -1.240983       -33.7689
  38   1.0000      -1.146512       -31.1982
  39   1.0000      -1.062329       -28.9074
  40   1.0000      -0.849256       -23.1094
  41   1.0000      -0.833387       -22.6776
  42   1.0000      -0.807297       -21.9677
  43   1.0000      -0.777448       -21.1554
  44   1.0000      -0.730480       -19.8774
  45   1.0000      -0.702995       -19.1295
  46   1.0000      -0.671190       -18.2640
  47   1.0000      -0.667781       -18.1712
  48   1.0000      -0.645976       -17.5779
  49   1.0000      -0.642051       -17.4711
  50   1.0000      -0.637934       -17.3591
  51   1.0000      -0.632379       -17.2079
  52   1.0000      -0.629256       -17.1229
  53   1.0000      -0.619482       -16.8570
  54   1.0000      -0.613284       -16.6883
  55   1.0000      -0.610149       -16.6030
  56   1.0000      -0.604338       -16.4449
  57   1.0000      -0.597852       -16.2684
  58   1.0000      -0.589808       -16.0495
  59   1.0000      -0.585879       -15.9426
  60   1.0000      -0.578462       -15.7408
  61   1.0000      -0.571962       -15.5639
  62   1.0000      -0.520721       -14.1695
  63   1.0000      -0.516447       -14.0532
  64   1.0000      -0.510805       -13.8997
  65   1.0000      -0.505879       -13.7657
  66   1.0000      -0.504559       -13.7298
  67   1.0000      -0.503267       -13.6946
  68   1.0000      -0.501672       -13.6512
  69   1.0000      -0.495100       -13.4724
  70   1.0000      -0.491063       -13.3625
  71   1.0000      -0.486757       -13.2453
  72   1.0000      -0.485879       -13.2214
  73   1.0000      -0.482828       -13.1384
  74   1.0000      -0.477805       -13.0017
  75   1.0000      -0.475401       -12.9363
  76   1.0000      -0.471314       -12.8251
  77   1.0000      -0.464224       -12.6322
  78   1.0000      -0.463766       -12.6197
  79   1.0000      -0.461272       -12.5518
  80   1.0000      -0.459588       -12.5060
  81   1.0000      -0.456625       -12.4254
  82   1.0000      -0.452425       -12.3111
  83   1.0000      -0.445982       -12.1358
  84   1.0000      -0.444522       -12.0961
  85   1.0000      -0.443450       -12.0669
  86   1.0000      -0.441662       -12.0182
  87   1.0000      -0.440468       -11.9857
  88   1.0000      -0.436418       -11.8755
  89   1.0000      -0.428676       -11.6649
  90   1.0000      -0.413721       -11.2579
  91   1.0000      -0.380709       -10.3596
  92   1.0000      -0.362904        -9.8751
  93   1.0000      -0.359601        -9.7852
  94   1.0000      -0.317950        -8.6519
  95   0.0000      -0.131795        -3.5863
  96   0.0000      -0.051029        -1.3886
  97   0.0000       0.004123         0.1122
  98   0.0000       0.024570         0.6686
  99   0.0000       0.036604         0.9961

MULLIKEN ATOMIC CHARGES AND SPIN POPULATIONS
--------------------------------------------
   0 C :    0.229497    0.000334
   1 O :   -0.347945   -0.000047
   2 O :   -0.286033    0.000354
   3 C :    0.416529    0.001181
   4 C :    0.309719   -0.001141
   5 C :    0.360902    0.007086
   6 C :    0.128635    0.835423
   7 C :    0.359435   -0.024510
   8 C :    0.320056    0.027433
   9 C :    0.479202    0.004417
  10 F :   -0.176557   -0.000044
  11 F :   -0.173770    0.000089
  12 F :   -0.175348    0.001117
  13 F :   -0.175194    0.001558
  14 F :   -0.179366    0.029755
  15 F :   -0.176583    0.005898
  16 F :   -0.140782    0.088552
  17 F :   -0.172409    0.008242
  18 F :   -0.172351    0.010857
  19 F :   -0.171947    0.000634
  20 F :   -0.170237    0.000674
  21 F :   -0.155663    0.000056
  22 F :   -0.155216    0.002012
  23 F :   -0.154963    0.000035
  24 H :    0.380389    0.000032
Sum of atomic charges         :   -0.0000000

LOEWDIN ATOMIC CHARGES AND SPIN POPULATIONS
-------------------------------------------
   0 C :   -0.489060    0.000324
   1 O :    0.154354    0.000017
   2 O :    0.135150    0.000303
   3 C :   -0.448844    0.001016
   4 C :   -0.445374    0.006394
   5 C :   -0.469857    0.061493
   6 C :   -0.158691    0.656844
   7 C :   -0.476181    0.061917
   8 C :   -0.458581    0.023269
   9 C :   -0.662237    0.004335
  10 F :    0.209244    0.000045
  11 F :    0.213224    0.000119
  12 F :    0.222194    0.001732
  13 F :    0.219107    0.001994
  14 F :    0.192223    0.033631
  15 F :    0.217776    0.007931
  16 F :    0.268965    0.113379
  17 F :    0.216941    0.009389
  18 F :    0.212251    0.011209
  19 F :    0.220015    0.000891
  20 F :    0.222498    0.001275
  21 F :    0.224967    0.000078
  22 F :    0.221342    0.002330
  23 F :    0.225869    0.000060
  24 H :    0.232705    0.000025

  Mayer bond orders larger than 0.100000
B(  0-C ,  1-O ) :   1.3055 B(  0-C ,  2-O ) :   2.0828 B(  0-C ,  3-C ) :   0.8975
B(  1-O , 24-H ) :   0.8218 B(  3-C ,  4-C ) :   0.9364 B(  3-C , 10-F ) :   1.0927
B(  3-C , 11-F ) :   1.1083 B(  4-C ,  5-C ) :   0.9185 B(  4-C , 12-F ) :   1.0795
B(  4-C , 13-F ) :   1.0642 B(  5-C ,  6-C ) :   1.0454 B(  5-C , 14-F ) :   1.0710
B(  5-C , 15-F ) :   1.0640 B(  6-C ,  7-C ) :   1.0230 B(  6-C , 16-F ) :   1.1253
B(  7-C ,  8-C ) :   0.9086 B(  7-C , 17-F ) :   1.0907 B(  7-C , 18-F ) :   1.0860
B(  8-C ,  9-C ) :   0.9627 B(  8-C , 19-F ) :   1.0739 B(  8-C , 20-F ) :   1.0823
B(  9-C , 21-F ) :   1.1505 B(  9-C , 22-F ) :   1.1432 B(  9-C , 23-F ) :   1.1526

Dispersion correction           -0.042987980
FINAL SINGLE POINT ENERGY     -1853.736881020773

DIPOLE MOMENT
-------------

Method             : SCF
Type of density    : Electron Density
Multiplicity       :   2
Irrep              :   0
Energy             : -1853.6938930408316537 Eh
Relativity type    :
Basis              : AO
                                X                 Y                 Z
Electronic contribution:    -14.024678030      -1.535120663      -0.029075231
Nuclear contribution   :     15.004024497       1.380921955      -0.761089567
                        -----------------------------------------
Total Dipole Moment    :      0.979346467      -0.154198708      -0.790164798
                        -----------------------------------------
Magnitude (a.u.)       :      1.267776460
Magnitude (Debye)      :      3.222431669

VIBRATIONAL FREQUENCIES
-----------------------

Scaling factor for frequencies =  1.000000000  (already applied!)

     0:       0.00 cm**-1
     1:       0.00 cm**-1
     2:       0.00 cm**-1
     3:       0.00 cm**-1
     4:       0.00 cm**-1
     5:       0.00 cm**-1
     6:     -10.82 cm**-1  ***imaginary mode***
     7:      17.57 cm**-1
     8:      31.09 cm**-1
     9:      44.26 cm**-1
    10:      53.73 cm**-1
    11:      64.77 cm**-1
    12:      71.62 cm**-1
    13:      77.76 cm**-1
    14:      98.80 cm**-1
    15:     126.57 cm**-1
    16:     147.99 cm**-1
    17:     185.70 cm**-1
    18:     191.07 cm**-1
    19:     201.74 cm**-1
    20:     208.48 cm**-1
    21:     223.69 cm**-1
    22:     227.54 cm**-1
    23:     241.69 cm**-1
    24:     262.77 cm**-1
    25:     281.75 cm**-1
    26:     286.19 cm**-1
    27:     307.97 cm**-1
    28:     328.88 cm**-1
    29:     340.70 cm**-1
    30:     350.76 cm**-1
    31:     366.50 cm**-1
    32:     367.96 cm**-1
    33:     375.99 cm**-1
    34:     391.64 cm**-1
    35:     440.42 cm**-1
    36:     465.49 cm**-1
    37:     507.12 cm**-1
    38:     516.92 cm**-1
    39:     528.95 cm**-1
    40:     541.56 cm**-1
    41:     567.57 cm**-1
    42:     581.54 cm**-1
    43:     590.09 cm**-1
    44:     604.37 cm**-1
    45:     624.95 cm**-1
    46:     633.52 cm**-1
    47:     675.99 cm**-1
    48:     694.10 cm**-1
    49:     717.79 cm**-1
    50:     756.28 cm**-1
    51:     777.61 cm**-1
    52:     868.26 cm**-1
    53:     993.53 cm**-1
    54:    1045.81 cm**-1
    55:    1097.32 cm**-1
    56:    1105.12 cm**-1
    57:    1121.81 cm**-1
    58:    1132.87 cm**-1
    59:    1141.16 cm**-1
    60:    1144.07 cm**-1
    61:    1150.34 cm**-1
    62:    1153.14 cm**-1
    63:    1158.20 cm**-1
    64:    1184.33 cm**-1
    65:    1192.87 cm**-1
    66:    1224.12 cm**-1
    67:    1233.21 cm**-1
    68:    1251.50 cm**-1
    69:    1309.96 cm**-1
    70:    1328.54 cm**-1
    71:    1384.46 cm**-1
    72:    1407.51 cm**-1
    73:    1822.08 cm**-1
    74:    3610.76 cm**-1

IR SPECTRUM
-----------

 Mode   freq       eps      Int      T**2         TX        TY        TZ
       cm**-1   L/(mol*cm) km/mol    a.u.
----------------------------------------------------------------------------
  7:     17.57   0.000038    0.19  0.000672  ( 0.010280 -0.006923  0.022769)
  8:     31.09   0.000020    0.10  0.000206  ( 0.004883  0.013424  0.001274)
  9:     44.26   0.000204    1.03  0.001440  (-0.011897  0.013433 -0.033434)
 10:     53.73   0.000180    0.91  0.001045  (-0.022014 -0.006429 -0.022786)
 11:     64.77   0.000209    1.05  0.001005  (-0.014732 -0.017227 -0.022156)
 12:     71.62   0.000022    0.11  0.000096  (-0.005000 -0.001148 -0.008367)
 13:     77.76   0.000027    0.14  0.000107  (-0.001628 -0.008095 -0.006259)
 14:     98.80   0.000043    0.21  0.000134  ( 0.003878 -0.003534 -0.010336)
 15:    126.57   0.000198    1.00  0.000488  (-0.009385 -0.012840  0.015332)
 16:    147.99   0.000458    2.31  0.000966  (-0.026263  0.007851 -0.014638)
 17:    185.70   0.000498    2.52  0.000836  (-0.015297  0.004851  0.024059)
 18:    191.07   0.000309    1.56  0.000505  (-0.012642 -0.004362  0.018048)
 19:    201.74   0.001263    6.38  0.001954  (-0.011960  0.019537  0.037804)
 20:    208.48   0.001082    5.47  0.001620  ( 0.024874 -0.025484  0.018745)
 21:    223.69   0.000170    0.86  0.000237  ( 0.001301  0.000355 -0.015334)
 22:    227.54   0.000010    0.05  0.000014  (-0.000546 -0.003143  0.001893)
 23:    241.69   0.000080    0.40  0.000103  (-0.002648  0.003900  0.008990)
 24:    262.77   0.000424    2.14  0.000504  ( 0.018399  0.012491 -0.002996)
 25:    281.75   0.000967    4.89  0.001071  (-0.029706  0.013490  0.002509)
 26:    286.19   0.000301    1.52  0.000329  ( 0.001785 -0.013160 -0.012337)
 27:    307.97   0.000007    0.03  0.000007  (-0.001074  0.001871  0.001460)
 28:    328.88   0.000012    0.06  0.000012  ( 0.002752 -0.001197 -0.001588)
 29:    340.70   0.000273    1.38  0.000250  ( 0.013255  0.005503  0.006672)
 30:    350.76   0.000318    1.61  0.000283  ( 0.006368 -0.007234 -0.013788)
 31:    366.50   0.000028    0.14  0.000024  (-0.004827  0.000450  0.000767)
 32:    367.96   0.000015    0.08  0.000013  (-0.001370 -0.000616  0.003217)
 33:    375.99   0.000717    3.62  0.000595  (-0.014875 -0.018509 -0.005558)
 34:    391.64   0.000515    2.60  0.000410  (-0.014147  0.011879 -0.008289)
 35:    440.42   0.000214    1.08  0.000152  ( 0.007964  0.002178 -0.009151)
 36:    465.49   0.000890    4.50  0.000597  ( 0.020722  0.012934  0.000295)
 37:    507.12   0.003448   17.43  0.002122  (-0.033103 -0.022322  0.022976)
 38:    516.92   0.002637   13.33  0.001592  ( 0.025286 -0.007848 -0.029848)
 39:    528.95   0.002509   12.68  0.001481  (-0.022289  0.029246  0.011333)
 40:    541.56   0.005467   27.63  0.003150  (-0.054063 -0.014509  0.004105)
 41:    567.57   0.013973   70.62  0.007683  ( 0.044504 -0.035216  0.066799)
 42:    581.54   0.010942   55.30  0.005872  (-0.073720 -0.019455  0.007642)
 43:    590.09   0.004320   21.83  0.002285  ( 0.008362 -0.024174  0.040376)
 44:    604.37   0.003462   17.49  0.001787  (-0.015206  0.022973 -0.032070)
 45:    624.95   0.029197  147.55  0.014579  ( 0.117901 -0.025988  0.001834)
 46:    633.52   0.033777  170.69  0.016638  ( 0.106057 -0.018415  0.071069)
 47:    675.99   0.006753   34.13  0.003117  (-0.050116  0.007953  0.023293)
 48:    694.10   0.000802    4.05  0.000361  ( 0.004884  0.016487 -0.008064)
 49:    717.79   0.014083   71.17  0.006123  ( 0.072540 -0.017356 -0.023652)
 50:    756.28   0.006311   31.89  0.002604  ( 0.007904  0.000736 -0.050410)
 51:    777.61   0.007340   37.09  0.002946  (-0.041072 -0.009444  0.034200)
 52:    868.26   0.023094  116.71  0.008300  ( 0.021524 -0.060076 -0.065022)
 53:    993.53   0.007131   36.03  0.002240  (-0.035122  0.007204  0.030890)
 54:   1045.81   0.054692  276.39  0.016320  ( 0.055096 -0.109879 -0.034799)
 55:   1097.32   0.041620  210.33  0.011836  (-0.088695 -0.063004  0.000082)
 56:   1105.12   0.022810  115.27  0.006441  ( 0.034999  0.034691  0.063346)
 57:   1121.81   0.006458   32.63  0.001796  (-0.017927  0.029371 -0.024746)
 58:   1132.87   0.088186  445.66  0.024292  (-0.060290 -0.016602  0.142764)
 59:   1141.16   0.075666  382.39  0.020692  ( 0.048218 -0.128245 -0.043819)
 60:   1144.07   0.012059   60.94  0.003289  (-0.011785 -0.004023  0.055984)
 61:   1150.34   0.074143  374.69  0.020113  (-0.060731  0.101220 -0.078612)
 62:   1153.14   0.076656  387.39  0.020745  (-0.031795 -0.017574  0.139373)
 63:   1158.20   0.114688  579.59  0.030901  (-0.029229 -0.161943 -0.061818)
 64:   1184.33   0.082620  417.53  0.021770  (-0.030368  0.071608 -0.125379)
 65:   1192.87   0.012197   61.64  0.003191  ( 0.039793 -0.016822 -0.036390)
 66:   1224.12   0.004927   24.90  0.001256  (-0.017435 -0.027653 -0.013683)
 67:   1233.21   0.003992   20.18  0.001010  (-0.009224  0.025011  0.017311)
 68:   1251.50   0.017275   87.30  0.004308  (-0.014318  0.040091 -0.049952)
 69:   1309.96   0.018337   92.67  0.004368  ( 0.040707 -0.014334 -0.050059)
 70:   1328.54   0.027714  140.05  0.006510  ( 0.080421 -0.005274  0.003791)
 71:   1384.46   0.016603   83.90  0.003742  (-0.055436  0.012499 -0.022648)
 72:   1407.51   0.011535   58.29  0.002557  ( 0.029736 -0.014052 -0.038415)
 73:   1822.08   0.093149  470.74  0.015953  ( 0.000128 -0.109422 -0.063089)
 74:   3610.76   0.051445  259.98  0.004446  (-0.059687 -0.014941  0.025699)

--------------------------
THERMOCHEMISTRY AT 298.15K
--------------------------

Temperature         ...   298.15 K
Pressure            ...     1.00 atm
Total Mass          ...   395.07 AMU
Quasi RRHO          ...     True
Cut-Off Frequency   ...     1.00 cm^-1

Throughout the following assumptions are being made:
  (1) The electronic state is orbitally nondegenerate
      but the spin degeneracy is treated
  (2) There are no thermally accessible electronically excited states
  (3) Hindered rotations indicated by low frequency modes are not
      treated as such but are treated as vibrations and this may
      cause some error
  (4) All equations used are the standard statistical mechanics
      equations for an ideal gas
  (5) All vibrations are strictly harmonic

freq.      17.57  E(vib)   ...       0.57
freq.      31.09  E(vib)   ...       0.55
freq.      44.26  E(vib)   ...       0.53
freq.      53.73  E(vib)   ...       0.52
freq.      64.77  E(vib)   ...       0.50
freq.      71.62  E(vib)   ...       0.50
freq.      77.76  E(vib)   ...       0.49
freq.      98.80  E(vib)   ...       0.46
freq.     126.57  E(vib)   ...       0.43
freq.     147.99  E(vib)   ...       0.41
freq.     185.70  E(vib)   ...       0.37
freq.     191.07  E(vib)   ...       0.36
freq.     201.74  E(vib)   ...       0.35
freq.     208.48  E(vib)   ...       0.34
freq.     223.69  E(vib)   ...       0.33
freq.     227.54  E(vib)   ...       0.33
freq.     241.69  E(vib)   ...       0.31
freq.     262.77  E(vib)   ...       0.29
freq.     281.75  E(vib)   ...       0.28
freq.     286.19  E(vib)   ...       0.27
freq.     307.97  E(vib)   ...       0.26
freq.     328.88  E(vib)   ...       0.24
freq.     340.70  E(vib)   ...       0.23
freq.     350.76  E(vib)   ...       0.23
freq.     366.50  E(vib)   ...       0.22
freq.     367.96  E(vib)   ...       0.21
freq.     375.99  E(vib)   ...       0.21
freq.     391.64  E(vib)   ...       0.20
freq.     440.42  E(vib)   ...       0.17
freq.     465.49  E(vib)   ...       0.16
freq.     507.12  E(vib)   ...       0.14
freq.     516.92  E(vib)   ...       0.13
freq.     528.95  E(vib)   ...       0.13
freq.     541.56  E(vib)   ...       0.12
freq.     567.57  E(vib)   ...       0.11
freq.     581.54  E(vib)   ...       0.11
freq.     590.09  E(vib)   ...       0.10
freq.     604.37  E(vib)   ...       0.10
freq.     624.95  E(vib)   ...       0.09
freq.     633.52  E(vib)   ...       0.09
freq.     675.99  E(vib)   ...       0.08
freq.     694.10  E(vib)   ...       0.07
freq.     717.79  E(vib)   ...       0.07
freq.     756.28  E(vib)   ...       0.06
freq.     777.61  E(vib)   ...       0.05
freq.     868.26  E(vib)   ...       0.04
freq.     993.53  E(vib)   ...       0.02
freq.    1045.81  E(vib)   ...       0.02
freq.    1097.32  E(vib)   ...       0.02
freq.    1105.12  E(vib)   ...       0.02
freq.    1121.81  E(vib)   ...       0.01
freq.    1132.87  E(vib)   ...       0.01
freq.    1141.16  E(vib)   ...       0.01
freq.    1144.07  E(vib)   ...       0.01
freq.    1150.34  E(vib)   ...       0.01
freq.    1153.14  E(vib)   ...       0.01
freq.    1158.20  E(vib)   ...       0.01
freq.    1184.33  E(vib)   ...       0.01
freq.    1192.87  E(vib)   ...       0.01
freq.    1224.12  E(vib)   ...       0.01
freq.    1233.21  E(vib)   ...       0.01
freq.    1251.50  E(vib)   ...       0.01
freq.    1309.96  E(vib)   ...       0.01
freq.    1328.54  E(vib)   ...       0.01
freq.    1384.46  E(vib)   ...       0.00
freq.    1407.51  E(vib)   ...       0.00
freq.    1822.08  E(vib)   ...       0.00
freq.    3610.76  E(vib)   ...       0.00

------------
INNER ENERGY
------------

The inner energy is: U= E(el) + E(ZPE) + E(vib) + E(rot) + E(trans)
    E(el)   - is the total energy from the electronic structure calculation
              = E(kin-el) + E(nuc-el) + E(el-el) + E(nuc-nuc)
    E(ZPE)  - the the zero temperature vibrational energy from the frequency calculation
    E(vib)  - the the finite temperature correction to E(ZPE) due to population
              of excited vibrational states
    E(rot)  - is the rotational thermal energy
    E(trans)- is the translational thermal energy

Summary of contributions to the inner energy U:
Electronic energy                ...  -1853.73688102 Eh
Zero point energy                ...      0.10516114 Eh      65.99 kcal/mol
Thermal vibrational correction   ...      0.01919228 Eh      12.04 kcal/mol
Thermal rotational correction    ...      0.00141627 Eh       0.89 kcal/mol
Thermal translational correction ...      0.00141627 Eh       0.89 kcal/mol
-----------------------------------------------------------------------
Total thermal energy                  -1853.60969505 Eh

Summary of corrections to the electronic energy:
(perhaps to be used in another calculation)
Total thermal correction                  0.02202483 Eh      13.82 kcal/mol
Non-thermal (ZPE) correction              0.10516114 Eh      65.99 kcal/mol
-----------------------------------------------------------------------
Total correction                          0.12718597 Eh      79.81 kcal/mol

--------
ENTHALPY
--------

The enthalpy is H = U + kB*T
                kB is Boltzmann's constant
Total thermal energy              ...  -1853.60969505 Eh
Thermal Enthalpy correction       ...      0.00094421 Eh       0.59 kcal/mol
-----------------------------------------------------------------------
Total Enthalpy                    ...  -1853.60875084 Eh

Note: Only C1 symmetry has been detected, increase convergence thresholds
      if your molecule has a higher symmetry. Symmetry factor of 1.0 is
      used for the rotational entropy correction.

Note: Rotational entropy computed according to Herzberg
Infrared and Raman Spectra, Chapter V,1, Van Nostrand Reinhold, 1945
Point Group:  C1, Symmetry Number:   1
Rotational constants in cm-1:     0.018862     0.004218     0.004108

Vibrational entropy computed according to the QRRHO of S. Grimme
Chem.Eur.J. 2012 18 9955 using a reference frequency of 100.0 cm-1

-------
ENTROPY
-------

The entropy contributions are T*S = T*(S(el)+S(vib)+S(rot)+S(trans))
     S(el)   - electronic entropy
     S(vib)  - vibrational entropy
     S(rot)  - rotational entropy
     S(trans)- translational entropy
The entropies will be listed as multiplied by the temperature to get
units of energy

Electronic entropy                ...      0.00065446 Eh      0.41 kcal/mol
Vibrational entropy               ...      0.03431233 Eh     21.53 kcal/mol
Rotational entropy                ...      0.01656089 Eh     10.39 kcal/mol

                             ****ORCA TERMINATED NORMALLY****
TOTAL RUN TIME: 0 days 0 hours 20 minutes 10 seconds 397 msec
