                         Program Version 6.0.1  -  RELEASE   -
|  1> !B3LYP def2-TZVP freq d3 TightSCF SlowConv defgrid2
|  2>
|  3> %pal
|  4> nprocs 20
|  5> end
|  6>
|  7> %scf
|  8> MaxIter 1500
|  9> end
| 10>
| 11> %maxcore 8000
| 12>
| 13> !CPCM
| 14> %cpcm smd true
| 15> SMDsolvent "ACETONITRILE"
| 16> end
| 17>
| 18> * xyz 0 2
| 19> 6        4.780959000     -0.038299000     -0.260507000
| 20> 8        5.143268000     -0.823006000     -1.262565000
| 21> 8        5.323821000      0.960531000      0.114375000
| 22> 6        3.485697000     -0.557234000      0.424000000
| 23> 6        2.219346000      0.131097000     -0.180186000
| 24> 6        0.863117000     -0.535756000      0.240174000
| 25> 6       -0.378445000      0.400299000      0.024312000
| 26> 6       -1.741923000     -0.374530000      0.025209000
| 27> 6       -2.992432000      0.541972000      0.223708000
| 28> 6       -4.278808000     -0.165351000     -0.157894000
| 29> 9        3.362717000     -1.896052000      0.286481000
| 30> 9        3.556731000     -0.264715000      1.737538000
| 31> 9        2.223394000      1.423465000      0.205077000
| 32> 9        2.318371000      0.084727000     -1.526054000
| 33> 9        0.697587000     -1.657182000     -0.489488000
| 34> 9        0.921296000     -0.873420000      1.542725000
| 35> 9       -0.394918000      1.321017000      1.007104000
| 36> 9       -0.247633000      1.031381000     -1.159519000
| 37> 9       -1.727213000     -1.293394000      1.012670000
| 38> 9       -1.872357000     -1.010725000     -1.156525000
| 39> 9       -2.873655000      1.641337000     -0.552222000
| 40> 9       -3.032776000      0.952414000      1.521213000
| 41> 9       -4.505286000     -1.309798000      0.462886000
| 42> 9       -5.343608000      0.614892000     -0.162307000
| 43> 1        5.943299000     -0.456340000     -1.689440000
| 44> *
| 45>
| 46>                          ****END OF INPUT****

CARTESIAN COORDINATES (ANGSTROEM)
---------------------------------
  C      4.780959   -0.038299   -0.260507
  O      5.143268   -0.823006   -1.262565
  O      5.323821    0.960531    0.114375
  C      3.485697   -0.557234    0.424000
  C      2.219346    0.131097   -0.180186
  C      0.863117   -0.535756    0.240174
  C     -0.378445    0.400299    0.024312
  C     -1.741923   -0.374530    0.025209
  C     -2.992432    0.541972    0.223708
  C     -4.278808   -0.165351   -0.157894
  F      3.362717   -1.896052    0.286481
  F      3.556731   -0.264715    1.737538
  F      2.223394    1.423465    0.205077
  F      2.318371    0.084727   -1.526054
  F      0.697587   -1.657182   -0.489488
  F      0.921296   -0.873420    1.542725
  F     -0.394918    1.321017    1.007104
  F     -0.247633    1.031381   -1.159519
  F     -1.727213   -1.293394    1.012670
  F     -1.872357   -1.010725   -1.156525
  F     -2.873655    1.641337   -0.552222
  F     -3.032776    0.952414    1.521213
  F     -4.505286   -1.309798    0.462886
  F     -5.343608    0.614892   -0.162307
  H      5.943299   -0.456340   -1.689440

 Total Charge           Charge          ....    0
 Multiplicity           Mult            ....    2
 Number of Electrons    NEL             ....  191
 Basis Dimension        Dim             ....  750

ORBITAL ENERGIES
----------------
                 SPIN UP ORBITALS
  NO   OCC          E(Eh)            E(eV)
   0   1.0000     -24.750549      -673.4967
   1   1.0000     -24.749720      -673.4741
   2   1.0000     -24.745543      -673.3605
   3   1.0000     -24.745365      -673.3556
   4   1.0000     -24.745050      -673.3471
   5   1.0000     -24.744931      -673.3438
   6   1.0000     -24.744814      -673.3406
   7   1.0000     -24.744352      -673.3281
   8   1.0000     -24.744151      -673.3226
   9   1.0000     -24.743466      -673.3039
  10   1.0000     -24.739951      -673.2083
  11   1.0000     -24.735343      -673.0829
  12   1.0000     -24.735302      -673.0818
  13   1.0000     -24.733411      -673.0303
  14   1.0000     -19.207865      -522.6726
  15   1.0000     -19.154833      -521.2295
  16   1.0000     -10.410818      -283.2928
  17   1.0000     -10.410428      -283.2821
  18   1.0000     -10.408311      -283.2245
  19   1.0000     -10.406497      -283.1752
  20   1.0000     -10.404465      -283.1199
  21   1.0000     -10.396899      -282.9140
  22   1.0000     -10.377852      -282.3957
  23   1.0000     -10.346869      -281.5526
  24   1.0000      -1.337478       -36.3946
  25   1.0000      -1.327885       -36.1336
  26   1.0000      -1.320551       -35.9340
  27   1.0000      -1.310957       -35.6730
  28   1.0000      -1.309442       -35.6317
  29   1.0000      -1.302153       -35.4334
  30   1.0000      -1.301735       -35.4220
  31   1.0000      -1.267900       -34.5013
  32   1.0000      -1.264056       -34.3967
  33   1.0000      -1.260493       -34.2998
  34   1.0000      -1.254376       -34.1333
  35   1.0000      -1.251792       -34.0630
  36   1.0000      -1.245822       -33.9006
  37   1.0000      -1.244665       -33.8691
  38   1.0000      -1.147276       -31.2190
  39   1.0000      -1.063175       -28.9305
  40   1.0000      -0.852625       -23.2011
  41   1.0000      -0.837762       -22.7967
  42   1.0000      -0.814082       -22.1523
  43   1.0000      -0.779469       -21.2104
  44   1.0000      -0.736151       -20.0317
  45   1.0000      -0.696694       -18.9580
  46   1.0000      -0.681755       -18.5515
  47   1.0000      -0.669652       -18.2222
  48   1.0000      -0.648520       -17.6471
  49   1.0000      -0.646988       -17.6054
  50   1.0000      -0.636732       -17.3264
  51   1.0000      -0.630176       -17.1480
  52   1.0000      -0.624940       -17.0055
  53   1.0000      -0.622811       -16.9476
  54   1.0000      -0.612586       -16.6693
  55   1.0000      -0.608364       -16.5544
  56   1.0000      -0.604528       -16.4501
  57   1.0000      -0.601349       -16.3636
  58   1.0000      -0.591376       -16.0921
  59   1.0000      -0.589900       -16.0520
  60   1.0000      -0.583461       -15.8768
  61   1.0000      -0.574570       -15.6348
  62   1.0000      -0.557742       -15.1769
  63   1.0000      -0.521726       -14.1969
  64   1.0000      -0.518484       -14.1087
  65   1.0000      -0.516505       -14.0548
  66   1.0000      -0.509054       -13.8521
  67   1.0000      -0.506733       -13.7889
  68   1.0000      -0.503153       -13.6915
  69   1.0000      -0.496915       -13.5218
  70   1.0000      -0.491907       -13.3855
  71   1.0000      -0.490088       -13.3360
  72   1.0000      -0.489235       -13.3128
  73   1.0000      -0.485338       -13.2067
  74   1.0000      -0.481896       -13.1131
  75   1.0000      -0.479090       -13.0367
  76   1.0000      -0.474016       -12.8986
  77   1.0000      -0.468411       -12.7461
  78   1.0000      -0.466135       -12.6842
  79   1.0000      -0.462178       -12.5765
  80   1.0000      -0.457962       -12.4618
  81   1.0000      -0.457305       -12.4439
  82   1.0000      -0.453924       -12.3519
  83   1.0000      -0.450405       -12.2562
  84   1.0000      -0.449274       -12.2254
  85   1.0000      -0.445569       -12.1245
  86   1.0000      -0.444769       -12.1028
  87   1.0000      -0.443108       -12.0576
  88   1.0000      -0.439006       -11.9460
  89   1.0000      -0.432227       -11.7615
  90   1.0000      -0.416571       -11.3355
  91   1.0000      -0.388339       -10.5672
  92   1.0000      -0.361438        -9.8352
  93   1.0000      -0.354900        -9.6573
  94   1.0000      -0.318436        -8.6651
  95   1.0000      -0.265923        -7.2361
  96   0.0000      -0.053855        -1.4655
  97   0.0000      -0.008300        -0.2259
  98   0.0000       0.006572         0.1788
  99   0.0000       0.030484         0.8295
 100   0.0000       0.037370         1.0169

                 SPIN DOWN ORBITALS
  NO   OCC          E(Eh)            E(eV)
   0   1.0000     -24.746805      -673.3948
   1   1.0000     -24.745928      -673.3709
   2   1.0000     -24.745544      -673.3605
   3   1.0000     -24.745360      -673.3555
   4   1.0000     -24.745049      -673.3470
   5   1.0000     -24.744907      -673.3431
   6   1.0000     -24.744814      -673.3406
   7   1.0000     -24.744151      -673.3226
   8   1.0000     -24.744123      -673.3218
   9   1.0000     -24.743466      -673.3039
  10   1.0000     -24.739917      -673.2074
  11   1.0000     -24.735343      -673.0829
  12   1.0000     -24.733825      -673.0416
  13   1.0000     -24.733411      -673.0303
  14   1.0000     -19.207865      -522.6726
  15   1.0000     -19.154833      -521.2295
  16   1.0000     -10.410831      -283.2931
  17   1.0000     -10.410433      -283.2823
  18   1.0000     -10.408362      -283.2259
  19   1.0000     -10.406498      -283.1752
  20   1.0000     -10.403743      -283.1002
  21   1.0000     -10.396899      -282.9140
  22   1.0000     -10.362268      -281.9717
  23   1.0000     -10.346869      -281.5526
  24   1.0000      -1.337169       -36.3862
  25   1.0000      -1.325334       -36.0642
  26   1.0000      -1.316222       -35.8162
  27   1.0000      -1.309709       -35.6390
  28   1.0000      -1.309359       -35.6295
  29   1.0000      -1.302087       -35.4316
  30   1.0000      -1.299384       -35.3580
  31   1.0000      -1.267745       -34.4971
  32   1.0000      -1.260656       -34.3042
  33   1.0000      -1.256376       -34.1877
  34   1.0000      -1.254039       -34.1241
  35   1.0000      -1.251761       -34.0621
  36   1.0000      -1.244665       -33.8691
  37   1.0000      -1.243921       -33.8488
  38   1.0000      -1.147276       -31.2190
  39   1.0000      -1.063175       -28.9305
  40   1.0000      -0.851820       -23.1792
  41   1.0000      -0.835183       -22.7265
  42   1.0000      -0.810269       -22.0485
  43   1.0000      -0.775029       -21.0896
  44   1.0000      -0.731756       -19.9121
  45   1.0000      -0.693434       -18.8693
  46   1.0000      -0.678005       -18.4494
  47   1.0000      -0.669560       -18.2197
  48   1.0000      -0.648011       -17.6333
  49   1.0000      -0.645330       -17.5603
  50   1.0000      -0.636360       -17.3162
  51   1.0000      -0.628434       -17.1006
  52   1.0000      -0.623486       -16.9659
  53   1.0000      -0.621119       -16.9015
  54   1.0000      -0.610254       -16.6059
  55   1.0000      -0.607170       -16.5219
  56   1.0000      -0.601323       -16.3628
  57   1.0000      -0.598569       -16.2879
  58   1.0000      -0.589366       -16.0375
  59   1.0000      -0.587905       -15.9977
  60   1.0000      -0.581771       -15.8308
  61   1.0000      -0.574428       -15.6310
  62   1.0000      -0.529482       -14.4079
  63   1.0000      -0.521701       -14.1962
  64   1.0000      -0.517690       -14.0871
  65   1.0000      -0.516302       -14.0493
  66   1.0000      -0.507182       -13.8011
  67   1.0000      -0.506245       -13.7756
  68   1.0000      -0.502210       -13.6658
  69   1.0000      -0.496110       -13.4998
  70   1.0000      -0.491574       -13.3764
  71   1.0000      -0.489753       -13.3269
  72   1.0000      -0.486826       -13.2472
  73   1.0000      -0.482843       -13.1388
  74   1.0000      -0.478726       -13.0268
  75   1.0000      -0.473811       -12.8930
  76   1.0000      -0.468323       -12.7437
  77   1.0000      -0.467449       -12.7199
  78   1.0000      -0.463506       -12.6126
  79   1.0000      -0.462098       -12.5743
  80   1.0000      -0.457226       -12.4417
  81   1.0000      -0.454830       -12.3766
  82   1.0000      -0.453798       -12.3485
  83   1.0000      -0.449407       -12.2290
  84   1.0000      -0.448713       -12.2101
  85   1.0000      -0.444289       -12.0897
  86   1.0000      -0.444109       -12.0848
  87   1.0000      -0.442550       -12.0424
  88   1.0000      -0.438006       -11.9188
  89   1.0000      -0.431355       -11.7378
  90   1.0000      -0.414978       -11.2921
  91   1.0000      -0.386389       -10.5142
  92   1.0000      -0.361365        -9.8332
  93   1.0000      -0.353558        -9.6208
  94   1.0000      -0.318398        -8.6640
  95   0.0000      -0.104846        -2.8530
  96   0.0000      -0.053772        -1.4632
  97   0.0000      -0.006773        -0.1843
  98   0.0000       0.008329         0.2266
  99   0.0000       0.032229         0.8770

MULLIKEN ATOMIC CHARGES AND SPIN POPULATIONS
--------------------------------------------
   0 C :    0.227527   -0.000004
   1 O :   -0.347084   -0.000000
   2 O :   -0.284795   -0.000004
   3 C :    0.412727   -0.000015
   4 C :    0.307327   -0.000049
   5 C :    0.327865   -0.000157
   6 C :    0.336984   -0.000683
   7 C :    0.323460   -0.003093
   8 C :    0.378919   -0.002481
   9 C :    0.271149    0.845497
  10 F :   -0.176444    0.000000
  11 F :   -0.172273   -0.000001
  12 F :   -0.170164    0.000001
  13 F :   -0.172075   -0.000003
  14 F :   -0.168150    0.000003
  15 F :   -0.166499   -0.000007
  16 F :   -0.166403   -0.000005
  17 F :   -0.167694   -0.000031
  18 F :   -0.169638    0.000636
  19 F :   -0.167901    0.002361
  20 F :   -0.172112    0.000392
  21 F :   -0.176984    0.029943
  22 F :   -0.145278    0.063484
  23 F :   -0.143438    0.064216
  24 H :    0.380973   -0.000000
Sum of atomic charges         :   -0.0000000

LOEWDIN ATOMIC CHARGES AND SPIN POPULATIONS
-------------------------------------------
   0 C :   -0.489323   -0.000004
   1 O :    0.155300   -0.000001
   2 O :    0.136261   -0.000003
   3 C :   -0.449232   -0.000016
   4 C :   -0.452332   -0.000049
   5 C :   -0.454701   -0.000160
   6 C :   -0.455108   -0.000532
   7 C :   -0.452744    0.000017
   8 C :   -0.486473    0.073782
   9 C :   -0.391873    0.706208
  10 F :    0.209859    0.000001
  11 F :    0.215155   -0.000001
  12 F :    0.224998    0.000003
  13 F :    0.221543   -0.000003
  14 F :    0.224400    0.000053
  15 F :    0.226210   -0.000005
  16 F :    0.226532    0.000136
  17 F :    0.225034   -0.000026
  18 F :    0.223567    0.000629
  19 F :    0.226228    0.005134
  20 F :    0.217561    0.001061
  21 F :    0.196793    0.031780
  22 F :    0.233775    0.090519
  23 F :    0.235664    0.091477
  24 H :    0.232908   -0.000000

  Mayer bond orders larger than 0.100000
B(  0-C ,  1-O ) :   1.3086 B(  0-C ,  2-O ) :   2.0841 B(  0-C ,  3-C ) :   0.8999
B(  1-O , 24-H ) :   0.8216 B(  3-C ,  4-C ) :   0.9436 B(  3-C , 10-F ) :   1.0899
B(  3-C , 11-F ) :   1.1055 B(  4-C ,  5-C ) :   0.9349 B(  4-C , 12-F ) :   1.0822
B(  4-C , 13-F ) :   1.0754 B(  5-C ,  6-C ) :   0.9368 B(  5-C , 14-F ) :   1.0824
B(  5-C , 15-F ) :   1.0839 B(  6-C ,  7-C ) :   0.9341 B(  6-C , 16-F ) :   1.0851
B(  6-C , 17-F ) :   1.0813 B(  7-C ,  8-C ) :   0.9268 B(  7-C , 18-F ) :   1.0793
B(  7-C , 19-F ) :   1.0806 B(  8-C ,  9-C ) :   0.9571 B(  8-C , 20-F ) :   1.0800
B(  8-C , 21-F ) :   1.0707 B(  9-C , 22-F ) :   1.1328 B(  9-C , 23-F ) :   1.1354

Dispersion correction           -0.043433771
FINAL SINGLE POINT ENERGY     -1853.717241186449

DIPOLE MOMENT
-------------

Method             : SCF
Type of density    : Electron Density
Multiplicity       :   2
Irrep              :   0
Energy             : -1853.6738074153847720 Eh
Relativity type    :
Basis              : AO
                                X                 Y                 Z
Electronic contribution:    -13.585524150      -0.321145112       2.030265634
Nuclear contribution   :     14.131488293      -0.159631168      -3.041653840
                        -----------------------------------------
Total Dipole Moment    :      0.545964143      -0.480776281      -1.011388206
                        -----------------------------------------
Magnitude (a.u.)       :      1.245844605
Magnitude (Debye)      :      3.166685325

VIBRATIONAL FREQUENCIES
-----------------------

Scaling factor for frequencies =  1.000000000  (already applied!)

     0:       0.00 cm**-1
     1:       0.00 cm**-1
     2:       0.00 cm**-1
     3:       0.00 cm**-1
     4:       0.00 cm**-1
     5:       0.00 cm**-1
     6:      24.12 cm**-1
     7:      31.90 cm**-1
     8:      39.13 cm**-1
     9:      43.93 cm**-1
    10:      52.93 cm**-1
    11:      61.29 cm**-1
    12:      62.10 cm**-1
    13:      73.24 cm**-1
    14:     115.76 cm**-1
    15:     136.65 cm**-1
    16:     157.47 cm**-1
    17:     186.07 cm**-1
    18:     200.53 cm**-1
    19:     203.58 cm**-1
    20:     207.24 cm**-1
    21:     224.98 cm**-1
    22:     238.91 cm**-1
    23:     251.86 cm**-1
    24:     257.36 cm**-1
    25:     263.87 cm**-1
    26:     290.38 cm**-1
    27:     305.42 cm**-1
    28:     314.85 cm**-1
    29:     336.11 cm**-1
    30:     355.66 cm**-1
    31:     363.78 cm**-1
    32:     367.07 cm**-1
    33:     372.51 cm**-1
    34:     376.00 cm**-1
    35:     411.64 cm**-1
    36:     457.35 cm**-1
    37:     512.93 cm**-1
    38:     515.94 cm**-1
    39:     545.98 cm**-1
    40:     555.42 cm**-1
    41:     570.32 cm**-1
    42:     580.44 cm**-1
    43:     599.75 cm**-1
    44:     612.61 cm**-1
    45:     633.59 cm**-1
    46:     640.23 cm**-1
    47:     676.54 cm**-1
    48:     708.74 cm**-1
    49:     716.38 cm**-1
    50:     755.32 cm**-1
    51:     771.57 cm**-1
    52:     871.51 cm**-1
    53:    1007.86 cm**-1
    54:    1060.22 cm**-1
    55:    1105.43 cm**-1
    56:    1124.80 cm**-1
    57:    1132.04 cm**-1
    58:    1133.74 cm**-1
    59:    1142.11 cm**-1
    60:    1146.80 cm**-1
    61:    1150.59 cm**-1
    62:    1153.20 cm**-1
    63:    1175.87 cm**-1
    64:    1183.44 cm**-1
    65:    1193.05 cm**-1
    66:    1222.70 cm**-1
    67:    1240.94 cm**-1
    68:    1258.27 cm**-1
    69:    1270.27 cm**-1
    70:    1316.29 cm**-1
    71:    1358.90 cm**-1
    72:    1398.57 cm**-1
    73:    1822.62 cm**-1
    74:    3614.07 cm**-1

IR SPECTRUM
-----------

 Mode   freq       eps      Int      T**2         TX        TY        TZ
       cm**-1   L/(mol*cm) km/mol    a.u.
----------------------------------------------------------------------------
  6:     24.12   0.000263    1.33  0.003400  ( 0.009522  0.056204 -0.012264)
  7:     31.90   0.000113    0.57  0.001106  (-0.019449  0.008148 -0.025724)
  8:     39.13   0.000056    0.28  0.000443  ( 0.006385 -0.016256  0.011733)
  9:     43.93   0.000054    0.27  0.000385  ( 0.010980 -0.012895  0.009922)
 10:     52.93   0.000159    0.80  0.000938  ( 0.015484 -0.016166  0.020904)
 11:     61.29   0.000195    0.99  0.000995  ( 0.021214 -0.012831  0.019495)
 12:     62.10   0.000184    0.93  0.000922  ( 0.022390 -0.001900  0.020428)
 13:     73.24   0.000106    0.54  0.000451  ( 0.017189  0.012084  0.003142)
 14:    115.76   0.000134    0.68  0.000361  (-0.012837  0.013743  0.002767)
 15:    136.65   0.000015    0.07  0.000033  ( 0.002884  0.001481  0.004775)
 16:    157.47   0.000068    0.35  0.000135  ( 0.011052  0.000722  0.003578)
 17:    186.07   0.003193   16.14  0.005355  ( 0.002031 -0.003388 -0.073075)
 18:    200.53   0.000179    0.91  0.000279  (-0.014431  0.008092  0.002334)
 19:    203.58   0.000333    1.68  0.000511  (-0.009746 -0.020384  0.000426)
 20:    207.24   0.000157    0.80  0.000237  (-0.002021  0.012797 -0.008311)
 21:    224.98   0.000228    1.15  0.000316  ( 0.015233 -0.003636 -0.008399)
 22:    238.91   0.000013    0.06  0.000017  ( 0.000904 -0.003168  0.002403)
 23:    251.86   0.000078    0.40  0.000097  ( 0.004561  0.005251 -0.006972)
 24:    257.36   0.000019    0.10  0.000023  (-0.001021  0.004658 -0.000534)
 25:    263.87   0.000432    2.18  0.000510  ( 0.020701  0.007782 -0.004619)
 26:    290.38   0.001813    9.16  0.001949  (-0.040919  0.016496 -0.001448)
 27:    305.42   0.000246    1.24  0.000251  ( 0.014241 -0.004013 -0.005651)
 28:    314.85   0.000111    0.56  0.000110  ( 0.002537 -0.004399  0.009195)
 29:    336.11   0.000047    0.24  0.000044  ( 0.001846  0.003156  0.005522)
 30:    355.66   0.000127    0.64  0.000111  ( 0.005778  0.007607  0.004459)
 31:    363.78   0.000199    1.01  0.000171  (-0.002412 -0.009683 -0.008459)
 32:    367.07   0.000271    1.37  0.000230  (-0.010317  0.009964  0.004962)
 33:    372.51   0.000041    0.21  0.000034  ( 0.002400 -0.004446 -0.002948)
 34:    376.00   0.000960    4.85  0.000796  (-0.025372 -0.011933 -0.003205)
 35:    411.64   0.000539    2.72  0.000408  ( 0.019878  0.003217 -0.001715)
 36:    457.35   0.001808    9.14  0.001233  ( 0.030230 -0.011808 -0.013424)
 37:    512.93   0.000109    0.55  0.000066  (-0.001994 -0.006384 -0.004659)
 38:    515.94   0.010123   51.16  0.006123  (-0.074246 -0.009603  0.022768)
 39:    545.98   0.014135   71.43  0.008079  ( 0.086687  0.022800 -0.006672)
 40:    555.42   0.006732   34.02  0.003782  (-0.024661  0.055771 -0.007980)
 41:    570.32   0.005508   27.84  0.003014  ( 0.002488  0.017629 -0.051932)
 42:    580.44   0.008373   42.31  0.004502  (-0.064138  0.018914 -0.005481)
 43:    599.75   0.007035   35.55  0.003660  ( 0.007427 -0.024807  0.054680)
 44:    612.61   0.000730    3.69  0.000372  (-0.010068 -0.007509  0.014637)
 45:    633.59   0.064482  325.87  0.031759  (-0.164399  0.059791 -0.034022)
 46:    640.23   0.006921   34.98  0.003373  ( 0.041703 -0.006740 -0.039862)
 47:    676.54   0.001865    9.42  0.000860  (-0.011634 -0.017733  0.020255)
 48:    708.74   0.009725   49.14  0.004282  (-0.054537 -0.010142 -0.034708)
 49:    716.38   0.003513   17.75  0.001530  ( 0.037816  0.008490 -0.005302)
 50:    755.32   0.000532    2.69  0.000220  (-0.013309 -0.005207  0.003930)
 51:    771.57   0.009262   46.81  0.003746  ( 0.031307  0.018340 -0.049291)
 52:    871.51   0.002130   10.76  0.000763  (-0.026287  0.007877 -0.003081)
 53:   1007.86   0.014159   71.56  0.004384  (-0.064358  0.001166 -0.015519)
 54:   1060.22   0.045197  228.41  0.013303  (-0.005340 -0.045628 -0.105796)
 55:   1105.43   0.007268   36.73  0.002052  (-0.009395 -0.011931  0.042673)
 56:   1124.80   0.011586   58.55  0.003214  (-0.014078  0.053451  0.012618)
 57:   1132.04   0.042955  217.08  0.011841  (-0.022526 -0.024303  0.103649)
 58:   1133.74   0.097029  490.35  0.026708  (-0.020571 -0.157416  0.038791)
 59:   1142.11   0.049110  248.18  0.013419  ( 0.011501  0.109051 -0.037340)
 60:   1146.80   0.033563  169.61  0.009133  ( 0.009678 -0.095004  0.003692)
 61:   1150.59   0.045362  229.24  0.012303  (-0.007877 -0.043483 -0.101737)
 62:   1153.20   0.220108  1112.33  0.059563  (-0.009832  0.080932  0.230035)
 63:   1175.87   0.003171   16.02  0.000842  ( 0.005054 -0.028561 -0.000460)
 64:   1183.44   0.008071   40.79  0.002128  (-0.033536  0.021715 -0.023064)
 65:   1193.05   0.004768   24.10  0.001247  ( 0.015790  0.025503 -0.018643)
 66:   1222.70   0.044210  223.42  0.011283  (-0.018276  0.096136 -0.041318)
 67:   1240.94   0.019150   96.77  0.004816  (-0.043376  0.051121 -0.017909)
 68:   1258.27   0.014240   71.96  0.003532  ( 0.007775 -0.058246  0.008862)
 69:   1270.27   0.003018   15.25  0.000741  ( 0.017672 -0.015357 -0.013900)
 70:   1316.29   0.003474   17.55  0.000824  (-0.013454  0.025178 -0.002929)
 71:   1358.90   0.021523  108.77  0.004943  (-0.060876  0.009211  0.033938)
 72:   1398.57   0.014389   72.71  0.003211  ( 0.040895 -0.029024 -0.026377)
 73:   1822.62   0.093940  474.73  0.016084  ( 0.042567  0.101349  0.063250)
 74:   3614.07   0.051402  259.77  0.004438  (-0.051923 -0.004348  0.041516)

--------------------------
THERMOCHEMISTRY AT 298.15K
--------------------------

Temperature         ...   298.15 K
Pressure            ...     1.00 atm
Total Mass          ...   395.07 AMU
Quasi RRHO          ...     True
Cut-Off Frequency   ...     1.00 cm^-1

Throughout the following assumptions are being made:
  (1) The electronic state is orbitally nondegenerate
      but the spin degeneracy is treated
  (2) There are no thermally accessible electronically excited states
  (3) Hindered rotations indicated by low frequency modes are not
      treated as such but are treated as vibrations and this may
      cause some error
  (4) All equations used are the standard statistical mechanics
      equations for an ideal gas
  (5) All vibrations are strictly harmonic

freq.      24.12  E(vib)   ...       0.56
freq.      31.90  E(vib)   ...       0.55
freq.      39.13  E(vib)   ...       0.54
freq.      43.93  E(vib)   ...       0.53
freq.      52.93  E(vib)   ...       0.52
freq.      61.29  E(vib)   ...       0.51
freq.      62.10  E(vib)   ...       0.51
freq.      73.24  E(vib)   ...       0.49
freq.     115.76  E(vib)   ...       0.44
freq.     136.65  E(vib)   ...       0.42
freq.     157.47  E(vib)   ...       0.40
freq.     186.07  E(vib)   ...       0.37
freq.     200.53  E(vib)   ...       0.35
freq.     203.58  E(vib)   ...       0.35
freq.     207.24  E(vib)   ...       0.34
freq.     224.98  E(vib)   ...       0.33
freq.     238.91  E(vib)   ...       0.32
freq.     251.86  E(vib)   ...       0.30
freq.     257.36  E(vib)   ...       0.30
freq.     263.87  E(vib)   ...       0.29
freq.     290.38  E(vib)   ...       0.27
freq.     305.42  E(vib)   ...       0.26
freq.     314.85  E(vib)   ...       0.25
freq.     336.11  E(vib)   ...       0.24
freq.     355.66  E(vib)   ...       0.22
freq.     363.78  E(vib)   ...       0.22
freq.     367.07  E(vib)   ...       0.22
freq.     372.51  E(vib)   ...       0.21
freq.     376.00  E(vib)   ...       0.21
freq.     411.64  E(vib)   ...       0.19
freq.     457.35  E(vib)   ...       0.16
freq.     512.93  E(vib)   ...       0.13
freq.     515.94  E(vib)   ...       0.13
freq.     545.98  E(vib)   ...       0.12
freq.     555.42  E(vib)   ...       0.12
freq.     570.32  E(vib)   ...       0.11
freq.     580.44  E(vib)   ...       0.11
freq.     599.75  E(vib)   ...       0.10
freq.     612.61  E(vib)   ...       0.10
freq.     633.59  E(vib)   ...       0.09
freq.     640.23  E(vib)   ...       0.09
freq.     676.54  E(vib)   ...       0.08
freq.     708.74  E(vib)   ...       0.07
freq.     716.38  E(vib)   ...       0.07
freq.     755.32  E(vib)   ...       0.06
freq.     771.57  E(vib)   ...       0.05
freq.     871.51  E(vib)   ...       0.04
freq.    1007.86  E(vib)   ...       0.02
freq.    1060.22  E(vib)   ...       0.02
freq.    1105.43  E(vib)   ...       0.02
freq.    1124.80  E(vib)   ...       0.01
freq.    1132.04  E(vib)   ...       0.01
freq.    1133.74  E(vib)   ...       0.01
freq.    1142.11  E(vib)   ...       0.01
freq.    1146.80  E(vib)   ...       0.01
freq.    1150.59  E(vib)   ...       0.01
freq.    1153.20  E(vib)   ...       0.01
freq.    1175.87  E(vib)   ...       0.01
freq.    1183.44  E(vib)   ...       0.01
freq.    1193.05  E(vib)   ...       0.01
freq.    1222.70  E(vib)   ...       0.01
freq.    1240.94  E(vib)   ...       0.01
freq.    1258.27  E(vib)   ...       0.01
freq.    1270.27  E(vib)   ...       0.01
freq.    1316.29  E(vib)   ...       0.01
freq.    1358.90  E(vib)   ...       0.01
freq.    1398.57  E(vib)   ...       0.00
freq.    1822.62  E(vib)   ...       0.00
freq.    3614.07  E(vib)   ...       0.00

------------
INNER ENERGY
------------

The inner energy is: U= E(el) + E(ZPE) + E(vib) + E(rot) + E(trans)
    E(el)   - is the total energy from the electronic structure calculation
              = E(kin-el) + E(nuc-el) + E(el-el) + E(nuc-nuc)
    E(ZPE)  - the the zero temperature vibrational energy from the frequency calculation
    E(vib)  - the the finite temperature correction to E(ZPE) due to population
              of excited vibrational states
    E(rot)  - is the rotational thermal energy
    E(trans)- is the translational thermal energy

Summary of contributions to the inner energy U:
Electronic energy                ...  -1853.71724119 Eh
Zero point energy                ...      0.10539428 Eh      66.14 kcal/mol
Thermal vibrational correction   ...      0.02000517 Eh      12.55 kcal/mol
Thermal rotational correction    ...      0.00141627 Eh       0.89 kcal/mol
Thermal translational correction ...      0.00141627 Eh       0.89 kcal/mol
-----------------------------------------------------------------------
Total thermal energy                  -1853.58900920 Eh

Summary of corrections to the electronic energy:
(perhaps to be used in another calculation)
Total thermal correction                  0.02283771 Eh      14.33 kcal/mol
Non-thermal (ZPE) correction              0.10539428 Eh      66.14 kcal/mol
-----------------------------------------------------------------------
Total correction                          0.12823199 Eh      80.47 kcal/mol

--------
ENTHALPY
--------

The enthalpy is H = U + kB*T
                kB is Boltzmann's constant
Total thermal energy              ...  -1853.58900920 Eh
Thermal Enthalpy correction       ...      0.00094421 Eh       0.59 kcal/mol
-----------------------------------------------------------------------
Total Enthalpy                    ...  -1853.58806499 Eh

Note: Only C1 symmetry has been detected, increase convergence thresholds
      if your molecule has a higher symmetry. Symmetry factor of 1.0 is
      used for the rotational entropy correction.

Note: Rotational entropy computed according to Herzberg
Infrared and Raman Spectra, Chapter V,1, Van Nostrand Reinhold, 1945
Point Group:  C1, Symmetry Number:   1
Rotational constants in cm-1:     0.022640     0.004059     0.003967

Vibrational entropy computed according to the QRRHO of S. Grimme
Chem.Eur.J. 2012 18 9955 using a reference frequency of 100.0 cm-1

-------
ENTROPY
-------

The entropy contributions are T*S = T*(S(el)+S(vib)+S(rot)+S(trans))
     S(el)   - electronic entropy
     S(vib)  - vibrational entropy
     S(rot)  - rotational entropy
     S(trans)- translational entropy
The entropies will be listed as multiplied by the temperature to get
units of energy

Electronic entropy                ...      0.00065446 Eh      0.41 kcal/mol
Vibrational entropy               ...      0.03587158 Eh     22.51 kcal/mol

                             ****ORCA TERMINATED NORMALLY****
TOTAL RUN TIME: 0 days 0 hours 19 minutes 42 seconds 176 msec
