                         Program Version 6.0.1  -  RELEASE   -
|  1> !B3LYP def2-TZVP freq d3 TightSCF SlowConv defgrid2
|  2>
|  3> %pal
|  4> nprocs 20
|  5> end
|  6>
|  7> %scf
|  8> MaxIter 1500
|  9> end
| 10>
| 11> %maxcore 8000
| 12>
| 13> !CPCM
| 14> %cpcm smd true
| 15> SMDsolvent "ACETONITRILE"
| 16> end
| 17>
| 18> * xyz -1 2
| 19> 6        7.924372000     27.241875000      2.905681000
| 20> 6        6.616982000     26.670678000      2.266342000
| 21> 6        6.683450000     25.149310000      1.909250000
| 22> 6        5.296776000     24.472529000      1.625939000
| 23> 6        5.403271000     23.118049000      0.988934000
| 24> 6        5.576561000     21.786483000      1.652605000
| 25> 6        6.769969000     20.942864000      1.114299000
| 26> 6        7.111969000     19.701215000      2.029724000
| 27> 9        8.989550000     26.926978000      2.165261000
| 28> 9        8.097594000     26.769459000      4.139814000
| 29> 9        7.825214000     28.571839000      2.970495000
| 30> 9        5.611703000     26.893346000      3.136646000
| 31> 9        6.377050000     27.368859000      1.139574000
| 32> 9        7.445878000     25.016524000      0.802151000
| 33> 9        7.274410000     24.481549000      2.921567000
| 34> 9        4.619646000     24.388043000      2.793697000
| 35> 9        4.608745000     25.289628000      0.785856000
| 36> 9        5.458807000     23.121480000     -0.333315000
| 37> 9        5.760417000     21.976185000      2.985022000
| 38> 9        4.433173000     21.050067000      1.499619000
| 39> 9        6.463181000     20.545954000     -0.156925000
| 40> 9        7.835630000     21.789803000      1.007723000
| 41> 8        8.060369000     19.863188000      2.800925000
| 42> 8        6.360877000     18.719001000      1.857179000
| 43> 8        4.400020000     18.156145000     -0.000002000
| 44> 1        4.221685000     18.975745000     -0.475572000
| 45> 1        5.095606000     18.401791000      0.649493000
| 46> *
| 47>
| 48>                          ****END OF INPUT****

CARTESIAN COORDINATES (ANGSTROEM)
---------------------------------
  C      7.924372   27.241875    2.905681
  C      6.616982   26.670678    2.266342
  C      6.683450   25.149310    1.909250
  C      5.296776   24.472529    1.625939
  C      5.403271   23.118049    0.988934
  C      5.576561   21.786483    1.652605
  C      6.769969   20.942864    1.114299
  C      7.111969   19.701215    2.029724
  F      8.989550   26.926978    2.165261
  F      8.097594   26.769459    4.139814
  F      7.825214   28.571839    2.970495
  F      5.611703   26.893346    3.136646
  F      6.377050   27.368859    1.139574
  F      7.445878   25.016524    0.802151
  F      7.274410   24.481549    2.921567
  F      4.619646   24.388043    2.793697
  F      4.608745   25.289628    0.785856
  F      5.458807   23.121480   -0.333315
  F      5.760417   21.976185    2.985022
  F      4.433173   21.050067    1.499619
  F      6.463181   20.545954   -0.156925
  F      7.835630   21.789803    1.007723
  O      8.060369   19.863188    2.800925
  O      6.360877   18.719001    1.857179
  O      4.400020   18.156145   -0.000002
  H      4.221685   18.975745   -0.475572
  H      5.095606   18.401791    0.649493

 Total Charge           Charge          ....   -1
 Multiplicity           Mult            ....    2
 Number of Electrons    NEL             ....  201
 Basis Dimension        Dim             ....  787

ORBITAL ENERGIES
----------------
                 SPIN UP ORBITALS
  NO   OCC          E(Eh)            E(eV)
   0   1.0000     -24.748585      -673.4432
   1   1.0000     -24.743826      -673.3137
   2   1.0000     -24.742767      -673.2849
   3   1.0000     -24.742099      -673.2668
   4   1.0000     -24.741431      -673.2486
   5   1.0000     -24.740800      -673.2314
   6   1.0000     -24.740152      -673.2138
   7   1.0000     -24.739807      -673.2044
   8   1.0000     -24.732966      -673.0182
   9   1.0000     -24.732522      -673.0061
  10   1.0000     -24.721648      -672.7102
  11   1.0000     -24.714262      -672.5093
  12   1.0000     -24.701919      -672.1734
  13   1.0000     -24.701618      -672.1652
  14   1.0000     -19.084864      -519.3256
  15   1.0000     -19.073640      -519.0201
  16   1.0000     -19.069818      -518.9161
  17   1.0000     -10.459761      -284.6246
  18   1.0000     -10.404972      -283.1337
  19   1.0000     -10.402256      -283.0598
  20   1.0000     -10.401799      -283.0473
  21   1.0000     -10.381300      -282.4895
  22   1.0000     -10.347107      -281.5591
  23   1.0000     -10.317889      -280.7640
  24   1.0000     -10.264430      -279.3093
  25   1.0000      -1.352324       -36.7986
  26   1.0000      -1.322970       -35.9998
  27   1.0000      -1.306933       -35.5635
  28   1.0000      -1.301629       -35.4191
  29   1.0000      -1.291917       -35.1549
  30   1.0000      -1.284051       -34.9408
  31   1.0000      -1.265414       -34.4337
  32   1.0000      -1.264857       -34.4185
  33   1.0000      -1.259272       -34.2665
  34   1.0000      -1.255704       -34.1694
  35   1.0000      -1.248263       -33.9670
  36   1.0000      -1.242131       -33.8001
  37   1.0000      -1.228283       -33.4233
  38   1.0000      -1.208195       -32.8767
  39   1.0000      -1.035739       -28.1839
  40   1.0000      -0.969984       -26.3946
  41   1.0000      -0.951323       -25.8868
  42   1.0000      -0.850664       -23.1477
  43   1.0000      -0.829540       -22.5729
  44   1.0000      -0.792983       -21.5782
  45   1.0000      -0.756813       -20.5939
  46   1.0000      -0.714139       -19.4327
  47   1.0000      -0.690680       -18.7944
  48   1.0000      -0.662078       -18.0160
  49   1.0000      -0.646274       -17.5860
  50   1.0000      -0.642882       -17.4937
  51   1.0000      -0.636023       -17.3071
  52   1.0000      -0.623028       -16.9535
  53   1.0000      -0.618085       -16.8189
  54   1.0000      -0.616084       -16.7645
  55   1.0000      -0.607890       -16.5415
  56   1.0000      -0.603540       -16.4232
  57   1.0000      -0.592483       -16.1223
  58   1.0000      -0.590198       -16.0601
  59   1.0000      -0.580112       -15.7856
  60   1.0000      -0.579297       -15.7635
  61   1.0000      -0.563528       -15.3344
  62   1.0000      -0.552857       -15.0440
  63   1.0000      -0.527175       -14.3452
  64   1.0000      -0.512756       -13.9528
  65   1.0000      -0.507904       -13.8208
  66   1.0000      -0.503357       -13.6970
  67   1.0000      -0.502993       -13.6871
  68   1.0000      -0.498429       -13.5629
  69   1.0000      -0.494935       -13.4679
  70   1.0000      -0.489448       -13.3186
  71   1.0000      -0.485120       -13.2008
  72   1.0000      -0.480433       -13.0732
  73   1.0000      -0.472966       -12.8701
  74   1.0000      -0.471688       -12.8353
  75   1.0000      -0.465855       -12.6766
  76   1.0000      -0.463175       -12.6036
  77   1.0000      -0.462331       -12.5807
  78   1.0000      -0.459494       -12.5035
  79   1.0000      -0.453566       -12.3422
  80   1.0000      -0.451655       -12.2902
  81   1.0000      -0.448129       -12.1942
  82   1.0000      -0.445083       -12.1113
  83   1.0000      -0.442371       -12.0375
  84   1.0000      -0.440383       -11.9834
  85   1.0000      -0.439935       -11.9712
  86   1.0000      -0.432638       -11.7727
  87   1.0000      -0.428738       -11.6666
  88   1.0000      -0.418013       -11.3747
  89   1.0000      -0.415130       -11.2963
  90   1.0000      -0.410370       -11.1667
  91   1.0000      -0.408274       -11.1097
  92   1.0000      -0.394807       -10.7432
  93   1.0000      -0.374339       -10.1863
  94   1.0000      -0.358118        -9.7449
  95   1.0000      -0.352563        -9.5937
  96   1.0000      -0.282751        -7.6941
  97   1.0000      -0.267236        -7.2719
  98   1.0000      -0.260194        -7.0802
  99   1.0000      -0.250436        -6.8147
 100   1.0000      -0.244146        -6.6436
 101   0.0000      -0.000507        -0.0138
 102   0.0000       0.020941         0.5698
 103   0.0000       0.024649         0.6707
 104   0.0000       0.050662         1.3786
 105   0.0000       0.063084         1.7166

                 SPIN DOWN ORBITALS
  NO   OCC          E(Eh)            E(eV)
   0   1.0000     -24.744167      -673.3230
   1   1.0000     -24.743829      -673.3138
   2   1.0000     -24.742766      -673.2849
   3   1.0000     -24.742063      -673.2658
   4   1.0000     -24.741434      -673.2486
   5   1.0000     -24.740766      -673.2305
   6   1.0000     -24.740144      -673.2135
   7   1.0000     -24.739773      -673.2034
   8   1.0000     -24.732481      -673.0050
   9   1.0000     -24.732011      -672.9922
  10   1.0000     -24.721500      -672.7062
  11   1.0000     -24.712935      -672.4731
  12   1.0000     -24.701804      -672.1702
  13   1.0000     -24.701560      -672.1636
  14   1.0000     -19.084861      -519.3255
  15   1.0000     -19.073605      -519.0192
  16   1.0000     -19.069678      -518.9123
  17   1.0000     -10.459705      -284.6230
  18   1.0000     -10.404840      -283.1301
  19   1.0000     -10.402711      -283.0721
  20   1.0000     -10.401496      -283.0391
  21   1.0000     -10.382101      -282.5113
  22   1.0000     -10.346682      -281.5475
  23   1.0000     -10.303525      -280.3732
  24   1.0000     -10.264400      -279.3085
  25   1.0000      -1.352278       -36.7973
  26   1.0000      -1.322430       -35.9852
  27   1.0000      -1.306318       -35.5467
  28   1.0000      -1.299818       -35.3698
  29   1.0000      -1.289584       -35.0914
  30   1.0000      -1.277235       -34.7553
  31   1.0000      -1.264952       -34.4211
  32   1.0000      -1.264789       -34.4167
  33   1.0000      -1.259220       -34.2651
  34   1.0000      -1.255483       -34.1634
  35   1.0000      -1.248151       -33.9639
  36   1.0000      -1.241026       -33.7700
  37   1.0000      -1.226397       -33.3720
  38   1.0000      -1.207880       -32.8681
  39   1.0000      -1.035566       -28.1792
  40   1.0000      -0.969963       -26.3940
  41   1.0000      -0.951136       -25.8817
  42   1.0000      -0.842635       -22.9293
  43   1.0000      -0.820994       -22.3404
  44   1.0000      -0.791146       -21.5282
  45   1.0000      -0.751076       -20.4378
  46   1.0000      -0.710458       -19.3326
  47   1.0000      -0.689638       -18.7660
  48   1.0000      -0.658142       -17.9090
  49   1.0000      -0.644871       -17.5478
  50   1.0000      -0.641428       -17.4542
  51   1.0000      -0.635889       -17.3034
  52   1.0000      -0.621441       -16.9103
  53   1.0000      -0.616732       -16.7821
  54   1.0000      -0.612737       -16.6734
  55   1.0000      -0.606499       -16.5037
  56   1.0000      -0.602027       -16.3820
  57   1.0000      -0.589588       -16.0435
  58   1.0000      -0.588651       -16.0180
  59   1.0000      -0.579187       -15.7605
  60   1.0000      -0.577783       -15.7223
  61   1.0000      -0.561414       -15.2769
  62   1.0000      -0.551420       -15.0049
  63   1.0000      -0.512665       -13.9503
  64   1.0000      -0.508216       -13.8293
  65   1.0000      -0.504449       -13.7267
  66   1.0000      -0.503158       -13.6916
  67   1.0000      -0.499216       -13.5844
  68   1.0000      -0.497276       -13.5316
  69   1.0000      -0.494479       -13.4555
  70   1.0000      -0.486812       -13.2468
  71   1.0000      -0.483914       -13.1680
  72   1.0000      -0.479262       -13.0414
  73   1.0000      -0.471962       -12.8427
  74   1.0000      -0.470627       -12.8064
  75   1.0000      -0.464916       -12.6510
  76   1.0000      -0.462253       -12.5786
  77   1.0000      -0.460211       -12.5230
  78   1.0000      -0.458095       -12.4654
  79   1.0000      -0.451685       -12.2910
  80   1.0000      -0.451469       -12.2851
  81   1.0000      -0.447836       -12.1863
  82   1.0000      -0.443832       -12.0773
  83   1.0000      -0.441365       -12.0101
  84   1.0000      -0.439914       -11.9707
  85   1.0000      -0.439207       -11.9514
  86   1.0000      -0.431716       -11.7476
  87   1.0000      -0.427446       -11.6314
  88   1.0000      -0.416529       -11.3343
  89   1.0000      -0.414711       -11.2849
  90   1.0000      -0.410180       -11.1616
  91   1.0000      -0.406130       -11.0514
  92   1.0000      -0.394494       -10.7347
  93   1.0000      -0.371493       -10.1088
  94   1.0000      -0.356814        -9.7094
  95   1.0000      -0.351133        -9.5548
  96   1.0000      -0.282694        -7.6925
  97   1.0000      -0.260002        -7.0750
  98   1.0000      -0.251219        -6.8360
  99   1.0000      -0.245791        -6.6883
 100   0.0000      -0.121397        -3.3034
 101   0.0000       0.001879         0.0511
 102   0.0000       0.025316         0.6889
 103   0.0000       0.026623         0.7244
 104   0.0000       0.054353         1.4790

MULLIKEN ATOMIC CHARGES AND SPIN POPULATIONS
--------------------------------------------
   0 C :    0.476650    0.002362
   1 C :    0.327475    0.004821
   2 C :    0.302533    0.032522
   3 C :    0.391427   -0.019587
   4 C :    0.102782    0.833050
   5 C :    0.351625   -0.004487
   6 C :    0.336219    0.010115
   7 C :    0.198761    0.000364
   8 F :   -0.155696   -0.000027
   9 F :   -0.153520    0.000041
  10 F :   -0.153986    0.000687
  11 F :   -0.166903   -0.000047
  12 F :   -0.165487    0.000218
  13 F :   -0.178293    0.000378
  14 F :   -0.177630    0.000634
  15 F :   -0.172121    0.008474
  16 F :   -0.178116    0.008734
  17 F :   -0.150143    0.084888
  18 F :   -0.194498    0.002881
  19 F :   -0.194734    0.024520
  20 F :   -0.215802    0.002416
  21 F :   -0.213123    0.000789
  22 O :   -0.454082    0.004804
  23 O :   -0.511584    0.001337
  24 O :   -0.726520    0.000072
  25 H :    0.324893   -0.000069
  26 H :    0.349873    0.000107
Sum of atomic charges         :   -1.0000000

LOEWDIN ATOMIC CHARGES AND SPIN POPULATIONS
-------------------------------------------
   0 C :   -0.663464    0.001734
   1 C :   -0.462093    0.006136
   2 C :   -0.453593    0.025718
   3 C :   -0.476538    0.066757
   4 C :   -0.163262    0.652875
   5 C :   -0.473399    0.057585
   6 C :   -0.432094    0.013814
   7 C :   -0.667791    0.002120
   8 F :    0.224780   -0.000040
   9 F :    0.225998    0.000055
  10 F :    0.223783    0.000806
  11 F :    0.221687   -0.000043
  12 F :    0.221211    0.000260
  13 F :    0.219744    0.001048
  14 F :    0.222626    0.001025
  15 F :    0.213207    0.010045
  16 F :    0.206610    0.009382
  17 F :    0.257223    0.109353
  18 F :    0.203652    0.003697
  19 F :    0.181851    0.027538
  20 F :    0.162784    0.002909
  21 F :    0.167733    0.001487
  22 O :   -0.028237    0.004459
  23 O :   -0.049284    0.001179
  24 O :   -0.367345    0.000080
  25 H :    0.148941   -0.000004
  26 H :    0.135270    0.000025

  Mayer bond orders larger than 0.100000
B(  0-C ,  1-C ) :   0.9648 B(  0-C ,  8-F ) :   1.1449 B(  0-C ,  9-F ) :   1.1541
B(  0-C , 10-F ) :   1.1460 B(  1-C ,  2-C ) :   0.9117 B(  1-C , 11-F ) :   1.0903
B(  1-C , 12-F ) :   1.0959 B(  2-C ,  3-C ) :   0.9139 B(  2-C , 13-F ) :   1.0599
B(  2-C , 14-F ) :   1.0706 B(  3-C ,  4-C ) :   1.0266 B(  3-C , 15-F ) :   1.0979
B(  3-C , 16-F ) :   1.0710 B(  4-C ,  5-C ) :   1.0121 B(  4-C , 17-F ) :   1.1237
B(  5-C ,  6-C ) :   0.8966 B(  5-C , 18-F ) :   1.0556 B(  5-C , 19-F ) :   1.0553
B(  6-C ,  7-C ) :   0.8634 B(  6-C , 20-F ) :   1.0224 B(  6-C , 21-F ) :   1.0409
B(  7-C , 22-O ) :   1.9334 B(  7-C , 23-O ) :   1.7046 B( 23-O , 26-H ) :   0.1191
B( 24-O , 25-H ) :   0.9044 B( 24-O , 26-H ) :   0.8276

Dispersion correction           -0.045979334
FINAL SINGLE POINT ENERGY     -1929.732085204835

DIPOLE MOMENT
-------------

Method             : SCF
Type of density    : Electron Density
Multiplicity       :   2
Irrep              :   0
Energy             : -1929.6861058711349415 Eh
Relativity type    :
Basis              : AO
                                X                 Y                 Z
Electronic contribution:      3.520853178      29.744649136       3.573088865
Nuclear contribution   :     -3.971463163     -21.381802467      -3.880365471
                        -----------------------------------------
Total Dipole Moment    :     -0.450609985       8.362846669      -0.307276606
                        -----------------------------------------
Magnitude (a.u.)       :      8.380612906
Magnitude (Debye)      :     21.301825123

VIBRATIONAL FREQUENCIES
-----------------------

Scaling factor for frequencies =  1.000000000  (already applied!)

     0:       0.00 cm**-1
     1:       0.00 cm**-1
     2:       0.00 cm**-1
     3:       0.00 cm**-1
     4:       0.00 cm**-1
     5:       0.00 cm**-1
     6:      15.72 cm**-1
     7:      23.78 cm**-1
     8:      27.71 cm**-1
     9:      38.51 cm**-1
    10:      45.05 cm**-1
    11:      53.41 cm**-1
    12:      54.55 cm**-1
    13:      62.00 cm**-1
    14:      75.16 cm**-1
    15:      85.54 cm**-1
    16:     109.57 cm**-1
    17:     125.74 cm**-1
    18:     161.67 cm**-1
    19:     168.72 cm**-1
    20:     172.03 cm**-1
    21:     187.29 cm**-1
    22:     192.79 cm**-1
    23:     205.88 cm**-1
    24:     218.60 cm**-1
    25:     231.72 cm**-1
    26:     242.85 cm**-1
    27:     246.12 cm**-1
    28:     267.21 cm**-1
    29:     283.31 cm**-1
    30:     288.49 cm**-1
    31:     311.47 cm**-1
    32:     327.64 cm**-1
    33:     342.45 cm**-1
    34:     356.11 cm**-1
    35:     362.76 cm**-1
    36:     371.54 cm**-1
    37:     374.67 cm**-1
    38:     396.93 cm**-1
    39:     435.14 cm**-1
    40:     441.68 cm**-1
    41:     459.43 cm**-1
    42:     510.91 cm**-1
    43:     524.76 cm**-1
    44:     546.98 cm**-1
    45:     556.16 cm**-1
    46:     572.34 cm**-1
    47:     585.07 cm**-1
    48:     595.33 cm**-1
    49:     619.98 cm**-1
    50:     647.75 cm**-1
    51:     689.22 cm**-1
    52:     696.65 cm**-1
    53:     709.72 cm**-1
    54:     726.46 cm**-1
    55:     776.34 cm**-1
    56:     799.87 cm**-1
    57:     868.06 cm**-1
    58:     991.36 cm**-1
    59:    1040.26 cm**-1
    60:    1087.08 cm**-1
    61:    1097.35 cm**-1
    62:    1105.40 cm**-1
    63:    1119.97 cm**-1
    64:    1130.93 cm**-1
    65:    1141.16 cm**-1
    66:    1144.74 cm**-1
    67:    1156.68 cm**-1
    68:    1165.15 cm**-1
    69:    1184.23 cm**-1
    70:    1189.40 cm**-1
    71:    1204.73 cm**-1
    72:    1257.80 cm**-1
    73:    1315.12 cm**-1
    74:    1325.32 cm**-1
    75:    1350.45 cm**-1
    76:    1392.37 cm**-1
    77:    1669.22 cm**-1
    78:    1722.35 cm**-1
    79:    3430.88 cm**-1
    80:    3810.21 cm**-1

IR SPECTRUM
-----------

 Mode   freq       eps      Int      T**2         TX        TY        TZ
       cm**-1   L/(mol*cm) km/mol    a.u.
----------------------------------------------------------------------------
  6:     15.72   0.000472    2.39  0.009368  (-0.047713 -0.051545 -0.066589)
  7:     23.78   0.000466    2.36  0.006118  (-0.063288 -0.045083 -0.008978)
  8:     27.71   0.000193    0.98  0.002174  ( 0.023937 -0.001589 -0.039977)
  9:     38.51   0.000082    0.42  0.000666  ( 0.016468  0.013096 -0.014942)
 10:     45.05   0.000153    0.78  0.001063  ( 0.021341  0.023483 -0.007482)
 11:     53.41   0.000009    0.05  0.000053  ( 0.000103  0.001089  0.007176)
 12:     54.55   0.000059    0.30  0.000339  (-0.003497 -0.013690  0.011790)
 13:     62.00   0.000026    0.13  0.000131  (-0.008767  0.001357  0.007259)
 14:     75.16   0.000490    2.47  0.002033  (-0.015053  0.042419 -0.002629)
 15:     85.54   0.000483    2.44  0.001761  ( 0.034430 -0.014087 -0.019416)
 16:    109.57   0.001442    7.29  0.004108  ( 0.032559 -0.009052 -0.054458)
 17:    125.74   0.000553    2.79  0.001371  (-0.001087 -0.034335 -0.013831)
 18:    161.67   0.027888  140.94  0.053832  (-0.163079  0.060311  0.153622)
 19:    168.72   0.000229    1.16  0.000424  ( 0.001030 -0.018502 -0.008984)
 20:    172.03   0.001488    7.52  0.002700  ( 0.020981  0.033760  0.033469)
 21:    187.29   0.001954    9.87  0.003255  ( 0.023129  0.016749  0.049394)
 22:    192.79   0.001693    8.56  0.002741  ( 0.050772  0.006379  0.011071)
 23:    205.88   0.001536    7.76  0.002328  (-0.026711 -0.029186  0.027625)
 24:    218.60   0.000564    2.85  0.000805  ( 0.015657  0.012563  0.020038)
 25:    231.72   0.000215    1.08  0.000289  (-0.010965 -0.010966 -0.006959)
 26:    242.85   0.000094    0.47  0.000120  ( 0.001638  0.010783 -0.001169)
 27:    246.12   0.000108    0.55  0.000137  (-0.011467  0.001495  0.001879)
 28:    267.21   0.000994    5.02  0.001161  (-0.014031 -0.029889 -0.008413)
 29:    283.31   0.000514    2.60  0.000566  ( 0.003984 -0.022452  0.006771)
 30:    288.49   0.000940    4.75  0.001016  (-0.004538 -0.029216 -0.011922)
 31:    311.47   0.000143    0.72  0.000143  ( 0.005943 -0.009692 -0.003756)
 32:    327.64   0.000229    1.16  0.000218  (-0.004093  0.013133  0.005344)
 33:    342.45   0.000016    0.08  0.000014  ( 0.000778  0.000052 -0.003721)
 34:    356.11   0.000086    0.44  0.000076  ( 0.002595  0.003094  0.007708)
 35:    362.76   0.000679    3.43  0.000585  (-0.006976  0.003523 -0.022879)
 36:    371.54   0.001214    6.14  0.001020  (-0.015392  0.027663 -0.004201)
 37:    374.67   0.000047    0.24  0.000039  (-0.005821 -0.002319  0.000195)
 38:    396.93   0.001957    9.89  0.001538  ( 0.027943  0.014586  0.023338)
 39:    435.14   0.003396   17.16  0.002435  ( 0.020774 -0.010814  0.043436)
 40:    441.68   0.012139   61.35  0.008577  (-0.052162  0.013969 -0.075238)
 41:    459.43   0.005356   27.06  0.003638  (-0.050206  0.024890 -0.022306)
 42:    510.91   0.000752    3.80  0.000459  (-0.003828  0.001579  0.021029)
 43:    524.76   0.007220   36.49  0.004294  ( 0.012229 -0.063773 -0.008787)
 44:    546.98   0.001427    7.21  0.000814  (-0.001131 -0.027842 -0.006160)
 45:    556.16   0.003265   16.50  0.001832  ( 0.010626 -0.022180 -0.035033)
 46:    572.34   0.005066   25.60  0.002762  (-0.047181  0.022477 -0.005585)
 47:    585.07   0.006515   32.93  0.003475  (-0.033870 -0.048237  0.001055)
 48:    595.33   0.002759   13.94  0.001446  ( 0.011809 -0.031143 -0.018349)
 49:    619.98   0.008050   40.68  0.004052  (-0.004257  0.062957  0.008386)
 50:    647.75   0.007297   36.88  0.003515  (-0.020409  0.055306 -0.006336)
 51:    689.22   0.020405  103.12  0.009239  (-0.003103 -0.095651 -0.008963)
 52:    696.65   0.006014   30.39  0.002694  (-0.048014  0.003973 -0.019310)
 53:    709.72   0.025478  128.75  0.011203  ( 0.078257 -0.020706 -0.068189)
 54:    726.46   0.020793  105.08  0.008932  (-0.066193 -0.056545 -0.036782)
 55:    776.34   0.010120   51.14  0.004068  ( 0.025056  0.058589  0.002700)
 56:    799.87   0.021366  107.97  0.008336  (-0.027472  0.053874 -0.068400)
 57:    868.06   0.008382   42.36  0.003013  (-0.044888 -0.023706 -0.020887)
 58:    991.36   0.004493   22.71  0.001414  (-0.027681  0.006356  0.024654)
 59:   1040.26   0.043760  221.15  0.013128  (-0.059551 -0.097802  0.003987)
 60:   1087.08   0.053402  269.87  0.015330  ( 0.110644  0.038343  0.040222)
 61:   1097.35   0.036935  186.65  0.010503  ( 0.030661  0.062957  0.074831)
 62:   1105.40   0.016050   81.11  0.004531  (-0.059526 -0.000292  0.031427)
 63:   1119.97   0.086770  438.50  0.024177  (-0.141650  0.056025 -0.031206)
 64:   1130.93   0.055014  278.02  0.015180  ( 0.023935  0.013171 -0.120141)
 65:   1141.16   0.012218   61.74  0.003341  (-0.036178 -0.001538  0.045054)
 66:   1144.74   0.055692  281.44  0.015182  ( 0.003774  0.023207 -0.120951)
 67:   1156.68   0.074922  378.62  0.020213  (-0.001735  0.069827 -0.123833)
 68:   1165.15   0.106902  540.24  0.028632  (-0.102010  0.057013  0.122374)
 69:   1184.23   0.049557  250.44  0.013059  (-0.018880 -0.065019  0.092061)
 70:   1189.40   0.017349   87.68  0.004552  (-0.004897 -0.021056 -0.063911)
 71:   1204.73   0.019510   98.60  0.005054  (-0.002717  0.069802 -0.013198)
 72:   1257.80   0.004850   24.51  0.001203  (-0.004571  0.033391 -0.008217)
 73:   1315.12   0.013118   66.29  0.003113  ( 0.036004 -0.021379  0.036871)
 74:   1325.32   0.027622  139.59  0.006504  (-0.019625 -0.069681 -0.035545)
 75:   1350.45   0.065514  331.08  0.015139  (-0.014319  0.111385 -0.050273)
 76:   1392.37   0.010872   54.94  0.002437  ( 0.007279  0.045815  0.016874)
 77:   1669.22   0.043114  217.88  0.008060  (-0.047998 -0.072232 -0.023216)
 78:   1722.35   0.176024  889.55  0.031893  (-0.137851 -0.076080 -0.084272)
 79:   3430.88   0.209080  1056.60  0.019017  (-0.098514 -0.044656 -0.085545)
 80:   3810.21   0.013423   67.83  0.001099  ( 0.018306 -0.013550  0.024096)

--------------------------
THERMOCHEMISTRY AT 298.15K
--------------------------

Temperature         ...   298.15 K
Pressure            ...     1.00 atm
Total Mass          ...   412.07 AMU
Quasi RRHO          ...     True
Cut-Off Frequency   ...     1.00 cm^-1

Throughout the following assumptions are being made:
  (1) The electronic state is orbitally nondegenerate
      but the spin degeneracy is treated
  (2) There are no thermally accessible electronically excited states
  (3) Hindered rotations indicated by low frequency modes are not
      treated as such but are treated as vibrations and this may
      cause some error
  (4) All equations used are the standard statistical mechanics
      equations for an ideal gas
  (5) All vibrations are strictly harmonic

freq.      15.72  E(vib)   ...       0.57
freq.      23.78  E(vib)   ...       0.56
freq.      27.71  E(vib)   ...       0.55
freq.      38.51  E(vib)   ...       0.54
freq.      45.05  E(vib)   ...       0.53
freq.      53.41  E(vib)   ...       0.52
freq.      54.55  E(vib)   ...       0.52
freq.      62.00  E(vib)   ...       0.51
freq.      75.16  E(vib)   ...       0.49
freq.      85.54  E(vib)   ...       0.48
freq.     109.57  E(vib)   ...       0.45
freq.     125.74  E(vib)   ...       0.43
freq.     161.67  E(vib)   ...       0.39
freq.     168.72  E(vib)   ...       0.38
freq.     172.03  E(vib)   ...       0.38
freq.     187.29  E(vib)   ...       0.36
freq.     192.79  E(vib)   ...       0.36
freq.     205.88  E(vib)   ...       0.35
freq.     218.60  E(vib)   ...       0.33
freq.     231.72  E(vib)   ...       0.32
freq.     242.85  E(vib)   ...       0.31
freq.     246.12  E(vib)   ...       0.31
freq.     267.21  E(vib)   ...       0.29
freq.     283.31  E(vib)   ...       0.28
freq.     288.49  E(vib)   ...       0.27
freq.     311.47  E(vib)   ...       0.25
freq.     327.64  E(vib)   ...       0.24
freq.     342.45  E(vib)   ...       0.23
freq.     356.11  E(vib)   ...       0.22
freq.     362.76  E(vib)   ...       0.22
freq.     371.54  E(vib)   ...       0.21
freq.     374.67  E(vib)   ...       0.21
freq.     396.93  E(vib)   ...       0.20
freq.     435.14  E(vib)   ...       0.17
freq.     441.68  E(vib)   ...       0.17
freq.     459.43  E(vib)   ...       0.16
freq.     510.91  E(vib)   ...       0.14
freq.     524.76  E(vib)   ...       0.13
freq.     546.98  E(vib)   ...       0.12
freq.     556.16  E(vib)   ...       0.12
freq.     572.34  E(vib)   ...       0.11
freq.     585.07  E(vib)   ...       0.11
freq.     595.33  E(vib)   ...       0.10
freq.     619.98  E(vib)   ...       0.09
freq.     647.75  E(vib)   ...       0.09
freq.     689.22  E(vib)   ...       0.07
freq.     696.65  E(vib)   ...       0.07
freq.     709.72  E(vib)   ...       0.07
freq.     726.46  E(vib)   ...       0.06
freq.     776.34  E(vib)   ...       0.05
freq.     799.87  E(vib)   ...       0.05
freq.     868.06  E(vib)   ...       0.04
freq.     991.36  E(vib)   ...       0.02
freq.    1040.26  E(vib)   ...       0.02
freq.    1087.08  E(vib)   ...       0.02
freq.    1097.35  E(vib)   ...       0.02
freq.    1105.40  E(vib)   ...       0.02
freq.    1119.97  E(vib)   ...       0.01
freq.    1130.93  E(vib)   ...       0.01
freq.    1141.16  E(vib)   ...       0.01
freq.    1144.74  E(vib)   ...       0.01
freq.    1156.68  E(vib)   ...       0.01
freq.    1165.15  E(vib)   ...       0.01
freq.    1184.23  E(vib)   ...       0.01
freq.    1189.40  E(vib)   ...       0.01
freq.    1204.73  E(vib)   ...       0.01
freq.    1257.80  E(vib)   ...       0.01
freq.    1315.12  E(vib)   ...       0.01
freq.    1325.32  E(vib)   ...       0.01
freq.    1350.45  E(vib)   ...       0.01
freq.    1392.37  E(vib)   ...       0.00
freq.    1669.22  E(vib)   ...       0.00
freq.    1722.35  E(vib)   ...       0.00
freq.    3430.88  E(vib)   ...       0.00
freq.    3810.21  E(vib)   ...       0.00

------------
INNER ENERGY
------------

The inner energy is: U= E(el) + E(ZPE) + E(vib) + E(rot) + E(trans)
    E(el)   - is the total energy from the electronic structure calculation
              = E(kin-el) + E(nuc-el) + E(el-el) + E(nuc-nuc)
    E(ZPE)  - the the zero temperature vibrational energy from the frequency calculation
    E(vib)  - the the finite temperature correction to E(ZPE) due to population
              of excited vibrational states
    E(rot)  - is the rotational thermal energy
    E(trans)- is the translational thermal energy

Summary of contributions to the inner energy U:
Electronic energy                ...  -1929.73208520 Eh
Zero point energy                ...      0.11669007 Eh      73.22 kcal/mol
Thermal vibrational correction   ...      0.02300791 Eh      14.44 kcal/mol
Thermal rotational correction    ...      0.00141627 Eh       0.89 kcal/mol
Thermal translational correction ...      0.00141627 Eh       0.89 kcal/mol
-----------------------------------------------------------------------
Total thermal energy                  -1929.58955468 Eh

Summary of corrections to the electronic energy:
(perhaps to be used in another calculation)
Total thermal correction                  0.02584045 Eh      16.22 kcal/mol
Non-thermal (ZPE) correction              0.11669007 Eh      73.22 kcal/mol
-----------------------------------------------------------------------
Total correction                          0.14253052 Eh      89.44 kcal/mol

--------
ENTHALPY
--------

The enthalpy is H = U + kB*T
                kB is Boltzmann's constant
Total thermal energy              ...  -1929.58955468 Eh
Thermal Enthalpy correction       ...      0.00094421 Eh       0.59 kcal/mol
-----------------------------------------------------------------------
Total Enthalpy                    ...  -1929.58861047 Eh

Note: Only C1 symmetry has been detected, increase convergence thresholds
      if your molecule has a higher symmetry. Symmetry factor of 1.0 is
      used for the rotational entropy correction.

Note: Rotational entropy computed according to Herzberg
Infrared and Raman Spectra, Chapter V,1, Van Nostrand Reinhold, 1945
Point Group:  C1, Symmetry Number:   1
Rotational constants in cm-1:     0.015963     0.004000     0.003717

Vibrational entropy computed according to the QRRHO of S. Grimme
Chem.Eur.J. 2012 18 9955 using a reference frequency of 100.0 cm-1

-------
ENTROPY
-------

The entropy contributions are T*S = T*(S(el)+S(vib)+S(rot)+S(trans))
     S(el)   - electronic entropy
     S(vib)  - vibrational entropy
     S(rot)  - rotational entropy

                             ****ORCA TERMINATED NORMALLY****
TOTAL RUN TIME: 0 days 0 hours 19 minutes 44 seconds 932 msec
