                         Program Version 6.0.1  -  RELEASE   -
|  1> !r2scanh def2-TZVP opt d3 TightSCF SlowConv defgrid2
|  2>
|  3> %pal
|  4> nprocs 20
|  5> end
|  6>
|  7> %scf
|  8> MaxIter 1500
|  9> end
| 10>
| 11> %maxcore 8000 #verificar
| 12>
| 13> !CPCM
| 14> %cpcm smd true
| 15> SMDsolvent "ACETONITRILE"
| 16> end
| 17>
| 18> * xyz -1 2
| 19> 6        4.790427000     -0.033865800     -0.529943200
| 20> 8        5.449345000     -1.206924000     -0.894594600
| 21> 8        4.978223000      1.323071000     -0.737377200
| 22> 6        3.506687600     -0.338741600      0.376153800
| 23> 6        2.222300000      0.400524800     -0.110681600
| 24> 6        0.900506800     -0.386389800      0.175703000
| 25> 6       -0.395261200      0.487294000      0.065549000
| 26> 6       -1.705693600     -0.364773800     -0.068373600
| 27> 6       -3.005136200      0.445344800      0.258164000
| 28> 6       -4.319880200     -0.214526000     -0.270540800
| 29> 9        3.211587400     -1.692050400      0.412735200
| 30> 9        3.741061800      0.055285800      1.689948800
| 31> 9        2.125696800      1.616867800      0.483236600
| 32> 9        2.314152400      0.589704000     -1.455769200
| 33> 9        0.794028800     -1.413561400     -0.700839000
| 34> 9        0.958350600     -0.884509000      1.435093400
| 35> 9       -0.498373400      1.260265600      1.173340200
| 36> 9       -0.299075000      1.289512600     -1.020910800
| 37> 9       -1.641790400     -1.418189000      0.779523800
| 38> 9       -1.792381400     -0.831391600     -1.336863600
| 39> 9       -2.918792200      1.679227200     -0.295171200
| 40> 9       -3.119771000      0.573779800      1.598579800
| 41> 9       -5.365669800      0.430528600      0.260394200
| 42> 9       -4.396020400     -0.128550600     -1.602941800
| 43> *
| 44>
| 45>                          ****END OF INPUT****
 Total Charge           Charge          ....   -1
 Multiplicity           Mult            ....    2
 Number of Electrons    NEL             ....  191
Dispersion correction           -0.008054053
FINAL SINGLE POINT ENERGY     -1853.037965450039
Dispersion correction             ... done (  0.0 sec)
Dispersion correction           -0.008110615
FINAL SINGLE POINT ENERGY     -1853.086349009055
Dispersion correction             ... done (  0.0 sec)
Dispersion correction           -0.008136777
FINAL SINGLE POINT ENERGY     -1853.093268631149
Dispersion correction             ... done (  0.0 sec)
FINAL SINGLE POINT ENERGY     -1853.097195261098
FINAL SINGLE POINT ENERGY     -1853.095789449814
FINAL SINGLE POINT ENERGY     -1853.097695725970
FINAL SINGLE POINT ENERGY     -1853.097914274519
FINAL SINGLE POINT ENERGY     -1853.098082546983
FINAL SINGLE POINT ENERGY     -1853.098127622234
Dispersion correction             ... done (  0.0 sec)
Dispersion correction           -0.008136854
FINAL SINGLE POINT ENERGY     -1853.098149571088
Dispersion correction             ... done (  0.0 sec)
Dispersion correction           -0.008136672
FINAL SINGLE POINT ENERGY     -1853.098154626162
Dispersion correction             ... done (  0.0 sec)
                    ***********************HURRAY********************

CARTESIAN COORDINATES (ANGSTROEM)
---------------------------------
  C      4.788260    0.073058   -0.372975
  O      5.369040   -0.797621   -1.028090
  O      5.039801    1.270552   -0.178945
  C      3.478815   -0.397957    0.362463
  C      2.214129    0.302942   -0.185516
  C      0.876105   -0.416754    0.155757
  C     -0.375990    0.497124   -0.002824
  C     -1.708051   -0.305911   -0.097856
  C     -2.970276    0.538927    0.223852
  C     -4.244433   -0.173654   -0.181623
  F      3.275994   -1.737569    0.249743
  F      3.560925   -0.129404    1.694743
  F      2.143997    1.558019    0.294796
  F      2.311854    0.365393   -1.530708
  F      0.728922   -1.478382   -0.656085
  F      0.917255   -0.846036    1.428107
  F     -0.443098    1.325063    1.051737
  F     -0.248243    1.229260   -1.120980
  F     -1.674894   -1.334298    0.765438
  F     -1.826040   -0.793713   -1.343122
  F     -2.866064    1.730985   -0.415579
  F     -3.022219    0.768251    1.542830
  F     -5.308260    0.185369    0.504360
  F     -4.483007   -0.195711   -1.475107

 Multiplicity           Mult            ....    2
 Number of Electrons    NEL             ....  191
 Basis Dimension        Dim             ....  744

ORBITAL ENERGIES
----------------
                 SPIN UP ORBITALS
  NO   OCC          E(Eh)            E(eV)
   0   1.0000     -24.733832      -673.0418
   1   1.0000     -24.733516      -673.0332
   2   1.0000     -24.728391      -672.8937
   3   1.0000     -24.727893      -672.8802
   4   1.0000     -24.726707      -672.8479
   5   1.0000     -24.726550      -672.8436
   6   1.0000     -24.725002      -672.8015
   7   1.0000     -24.722624      -672.7368
   8   1.0000     -24.722200      -672.7253
   9   1.0000     -24.721479      -672.7056
  10   1.0000     -24.710750      -672.4137
  11   1.0000     -24.710596      -672.4095
  12   1.0000     -24.686227      -671.7464
  13   1.0000     -24.685916      -671.7379
  14   1.0000     -19.049314      -518.3582
  15   1.0000     -19.047412      -518.3064
  16   1.0000     -10.381158      -282.4857
  17   1.0000     -10.380989      -282.4811
  18   1.0000     -10.380531      -282.4686
  19   1.0000     -10.374600      -282.3072
  20   1.0000     -10.359529      -281.8971
  21   1.0000     -10.358317      -281.8641
  22   1.0000     -10.322125      -280.8793
  23   1.0000     -10.233544      -278.4689
  24   1.0000      -1.337701       -36.4007
  25   1.0000      -1.328244       -36.1434
  26   1.0000      -1.316898       -35.8346
  27   1.0000      -1.308758       -35.6131
  28   1.0000      -1.305688       -35.5296
  29   1.0000      -1.297540       -35.3079
  30   1.0000      -1.269604       -34.5477
  31   1.0000      -1.268382       -34.5144
  32   1.0000      -1.264500       -34.4088
  33   1.0000      -1.256488       -34.1908
  34   1.0000      -1.250454       -34.0266
  35   1.0000      -1.249833       -34.0097
  36   1.0000      -1.239272       -33.7223
  37   1.0000      -1.211004       -32.9531
  38   1.0000      -1.028962       -27.9995
  39   1.0000      -0.944622       -25.7045
  40   1.0000      -0.842909       -22.9367
  41   1.0000      -0.821537       -22.3552
  42   1.0000      -0.790600       -21.5133
  43   1.0000      -0.749378       -20.3916
  44   1.0000      -0.702520       -19.1166
  45   1.0000      -0.670850       -18.2547
  46   1.0000      -0.661568       -18.0022
  47   1.0000      -0.630757       -17.1638
  48   1.0000      -0.629132       -17.1196
  49   1.0000      -0.619897       -16.8682
  50   1.0000      -0.609964       -16.5980
  51   1.0000      -0.606892       -16.5144
  52   1.0000      -0.603560       -16.4237
  53   1.0000      -0.591018       -16.0824
  54   1.0000      -0.588936       -16.0258
  55   1.0000      -0.582498       -15.8506
  56   1.0000      -0.572578       -15.5806
  57   1.0000      -0.567897       -15.4533
  58   1.0000      -0.564412       -15.3584
  59   1.0000      -0.554833       -15.0978
  60   1.0000      -0.544572       -14.8185
  61   1.0000      -0.539880       -14.6909
  62   1.0000      -0.495651       -13.4873
  63   1.0000      -0.494418       -13.4538
  64   1.0000      -0.489313       -13.3149
  65   1.0000      -0.483909       -13.1678
  66   1.0000      -0.477174       -12.9846
  67   1.0000      -0.471808       -12.8386
  68   1.0000      -0.469909       -12.7869
  69   1.0000      -0.465397       -12.6641
  70   1.0000      -0.461879       -12.5684
  71   1.0000      -0.459756       -12.5106
  72   1.0000      -0.453899       -12.3512
  73   1.0000      -0.451844       -12.2953
  74   1.0000      -0.446318       -12.1449
  75   1.0000      -0.442795       -12.0491
  76   1.0000      -0.436397       -11.8750
  77   1.0000      -0.434988       -11.8366
  78   1.0000      -0.433462       -11.7951
  79   1.0000      -0.431298       -11.7362
  80   1.0000      -0.426923       -11.6172
  81   1.0000      -0.423480       -11.5235
  82   1.0000      -0.420263       -11.4359
  83   1.0000      -0.418110       -11.3774
  84   1.0000      -0.412759       -11.2317
  85   1.0000      -0.403069       -10.9681
  86   1.0000      -0.397805       -10.8248
  87   1.0000      -0.389386       -10.5957
  88   1.0000      -0.387355       -10.5405
  89   1.0000      -0.375288       -10.2121
  90   1.0000      -0.358930        -9.7670
  91   1.0000      -0.324464        -8.8291
  92   1.0000      -0.256478        -6.9791
  93   1.0000      -0.241628        -6.5750
  94   1.0000      -0.225418        -6.1339
  95   1.0000      -0.223252        -6.0750
  96   0.0000      -0.009309        -0.2533
  97   0.0000       0.000880         0.0240
  98   0.0000       0.021802         0.5933
  99   0.0000       0.050230         1.3668
 100   0.0000       0.055358         1.5064

                 SPIN DOWN ORBITALS
  NO   OCC          E(Eh)            E(eV)
   0   1.0000     -24.729674      -672.9286
   1   1.0000     -24.729147      -672.9143
   2   1.0000     -24.728302      -672.8913
   3   1.0000     -24.727842      -672.8788
   4   1.0000     -24.726705      -672.8478
   5   1.0000     -24.726548      -672.8436
   6   1.0000     -24.725067      -672.8033
   7   1.0000     -24.722199      -672.7252
   8   1.0000     -24.721479      -672.7056
   9   1.0000     -24.720853      -672.6886
  10   1.0000     -24.710750      -672.4137
  11   1.0000     -24.710596      -672.4095
  12   1.0000     -24.686227      -671.7464
  13   1.0000     -24.685916      -671.7379
  14   1.0000     -19.049313      -518.3582
  15   1.0000     -19.047412      -518.3064
  16   1.0000     -10.381162      -282.4858
  17   1.0000     -10.381009      -282.4816
  18   1.0000     -10.379914      -282.4518
  19   1.0000     -10.374605      -282.3073
  20   1.0000     -10.359530      -281.8971
  21   1.0000     -10.340818      -281.3880
  22   1.0000     -10.322126      -280.8793
  23   1.0000     -10.233544      -278.4689
  24   1.0000      -1.336591       -36.3705
  25   1.0000      -1.323515       -36.0147
  26   1.0000      -1.314590       -35.7718
  27   1.0000      -1.308715       -35.6119
  28   1.0000      -1.303269       -35.4638
  29   1.0000      -1.297533       -35.3077
  30   1.0000      -1.269587       -34.5472
  31   1.0000      -1.266357       -34.4593
  32   1.0000      -1.260487       -34.2996
  33   1.0000      -1.255478       -34.1633
  34   1.0000      -1.250380       -34.0246
  35   1.0000      -1.247872       -33.9563
  36   1.0000      -1.239271       -33.7223
  37   1.0000      -1.211004       -32.9531
  38   1.0000      -1.028962       -27.9995
  39   1.0000      -0.944621       -25.7045
  40   1.0000      -0.841127       -22.8882
  41   1.0000      -0.817663       -22.2498
  42   1.0000      -0.785665       -21.3790
  43   1.0000      -0.743779       -20.2393
  44   1.0000      -0.697251       -18.9732
  45   1.0000      -0.665055       -18.0971
  46   1.0000      -0.661466       -17.9994
  47   1.0000      -0.629270       -17.1233
  48   1.0000      -0.627328       -17.0705
  49   1.0000      -0.618118       -16.8198
  50   1.0000      -0.608126       -16.5479
  51   1.0000      -0.603951       -16.4343
  52   1.0000      -0.601824       -16.3765
  53   1.0000      -0.588003       -16.0004
  54   1.0000      -0.587376       -15.9833
  55   1.0000      -0.580437       -15.7945
  56   1.0000      -0.571454       -15.5500
  57   1.0000      -0.566179       -15.4065
  58   1.0000      -0.563646       -15.3376
  59   1.0000      -0.554153       -15.0793
  60   1.0000      -0.539879       -14.6909
  61   1.0000      -0.511903       -13.9296
  62   1.0000      -0.494741       -13.4626
  63   1.0000      -0.493309       -13.4236
  64   1.0000      -0.487527       -13.2663
  65   1.0000      -0.483251       -13.1499
  66   1.0000      -0.476771       -12.9736
  67   1.0000      -0.469138       -12.7659
  68   1.0000      -0.465765       -12.6741
  69   1.0000      -0.462341       -12.5809
  70   1.0000      -0.461349       -12.5539
  71   1.0000      -0.454869       -12.3776
  72   1.0000      -0.453531       -12.3412
  73   1.0000      -0.447542       -12.1782
  74   1.0000      -0.444386       -12.0924
  75   1.0000      -0.442303       -12.0357
  76   1.0000      -0.434979       -11.8364
  77   1.0000      -0.432462       -11.7679
  78   1.0000      -0.431166       -11.7326
  79   1.0000      -0.430797       -11.7226
  80   1.0000      -0.426528       -11.6064
  81   1.0000      -0.423016       -11.5109
  82   1.0000      -0.419569       -11.4171
  83   1.0000      -0.417941       -11.3727
  84   1.0000      -0.411995       -11.2110
  85   1.0000      -0.402455       -10.9514
  86   1.0000      -0.397800       -10.8247
  87   1.0000      -0.388641       -10.5754
  88   1.0000      -0.386539       -10.5182
  89   1.0000      -0.375287       -10.2121
  90   1.0000      -0.356713        -9.7066
  91   1.0000      -0.323439        -8.8012
  92   1.0000      -0.241628        -6.5750
  93   1.0000      -0.225415        -6.1338
  94   1.0000      -0.223248        -6.0749
  95   0.0000      -0.094025        -2.5585
  96   0.0000      -0.004012        -0.1092
  97   0.0000       0.002188         0.0595
  98   0.0000       0.024636         0.6704
  99   0.0000       0.052776         1.4361

MULLIKEN ATOMIC CHARGES AND SPIN POPULATIONS
--------------------------------------------
   0 C :    0.211698   -0.000002
   1 O :   -0.508861    0.000014
   2 O :   -0.523117    0.000002
   3 C :    0.343439   -0.000026
   4 C :    0.299494    0.000030
   5 C :    0.330684    0.000099
   6 C :    0.315188    0.000478
   7 C :    0.301955    0.006671
   8 C :    0.409672   -0.016852
   9 C :    0.259242    0.845782
  10 F :   -0.207630    0.000001
  11 F :   -0.213796    0.000001
  12 F :   -0.179096    0.000000
  13 F :   -0.186305   -0.000001
  14 F :   -0.172310    0.000009
  15 F :   -0.170864   -0.000025
  16 F :   -0.167298   -0.000048
  17 F :   -0.167021   -0.000034
  18 F :   -0.170213    0.000623
  19 F :   -0.167947    0.000317
  20 F :   -0.175739    0.032575
  21 F :   -0.167056   -0.000950
  22 F :   -0.146691    0.067217
  23 F :   -0.147426    0.064118
Sum of atomic charges         :   -1.0000000

LOEWDIN ATOMIC CHARGES AND SPIN POPULATIONS
-------------------------------------------
   0 C :   -0.696395    0.000000
   1 O :   -0.048091    0.000011
   2 O :   -0.054701    0.000002
   3 C :   -0.450756   -0.000005
   4 C :   -0.468652   -0.000042
   5 C :   -0.469803   -0.000093
   6 C :   -0.470427   -0.000607
   7 C :   -0.470878    0.003666
   8 C :   -0.502546    0.071241
   9 C :   -0.391273    0.716723
  10 F :    0.170721    0.000001
  11 F :    0.163216    0.000001
  12 F :    0.216567    0.000003
  13 F :    0.210049   -0.000001
  14 F :    0.222370    0.000017
  15 F :    0.224172    0.000010
  16 F :    0.228191    0.000069
  17 F :    0.228136    0.000057
  18 F :    0.230144    0.001906
  19 F :    0.229360    0.001169
  20 F :    0.203610    0.032044
  21 F :    0.228436   -0.000808
  22 F :    0.234353    0.089122
  23 F :    0.234197    0.085513

  Mayer bond orders larger than 0.100000
B(  0-C ,  1-O ) :   1.8538 B(  0-C ,  2-O ) :   1.8247 B(  0-C ,  3-C ) :   0.8377
B(  3-C ,  4-C ) :   0.9315 B(  3-C , 10-F ) :   1.0342 B(  3-C , 11-F ) :   1.0252
B(  4-C ,  5-C ) :   0.9236 B(  4-C , 12-F ) :   1.0639 B(  4-C , 13-F ) :   1.0584
B(  5-C ,  6-C ) :   0.9322 B(  5-C , 14-F ) :   1.0686 B(  5-C , 15-F ) :   1.0796
B(  6-C ,  7-C ) :   0.9341 B(  6-C , 16-F ) :   1.0802 B(  6-C , 17-F ) :   1.0798
B(  7-C ,  8-C ) :   0.9346 B(  7-C , 18-F ) :   1.0727 B(  7-C , 19-F ) :   1.0809
B(  8-C ,  9-C ) :   0.8933 B(  8-C , 20-F ) :   1.0537 B(  8-C , 21-F ) :   1.0924
B(  9-C , 22-F ) :   1.1200 B(  9-C , 23-F ) :   1.1276

Dispersion correction           -0.008136750
FINAL SINGLE POINT ENERGY     -1853.098155930628

DIPOLE MOMENT
-------------

Method             : SCF
Type of density    : Electron Density
Multiplicity       :   2
Irrep              :   0
Energy             : -1853.0900191808696036 Eh
Relativity type    :
Basis              : AO
                                X                 Y                 Z
Electronic contribution:    -17.210851667      -0.430849387       1.758089870
Nuclear contribution   :      8.533116735       0.106110786      -0.990644911
                        -----------------------------------------
Total Dipole Moment    :     -8.677734932      -0.324738601       0.767444959
                        -----------------------------------------
Magnitude (a.u.)       :      8.717655101
Magnitude (Debye)      :     22.158518301

Rotational constants in cm-1:             0.022879             0.004117             0.004089
Rotational constants in MHz :           685.887750           123.411467           122.570376

                             ****ORCA TERMINATED NORMALLY****
TOTAL RUN TIME: 0 days 0 hours 18 minutes 57 seconds 630 msec
