                         Program Version 6.0.1  -  RELEASE   -
|  1> !TPSSh def2-TZVP freq d3 TightSCF SlowConv defgrid2
|  2>
|  3> %pal
|  4> nprocs 20
|  5> end
|  6>
|  7> %scf
|  8> MaxIter 1500
|  9> end
| 10>
| 11> %maxcore 8000
| 12>
| 13> !CPCM
| 14> %cpcm smd true
| 15> SMDsolvent "ACETONITRILE"
| 16> end
| 17>
| 18> * xyz 0 2
| 19> 6        4.484661000      0.335454000      0.248514000
| 20> 8        5.273086000     -0.373078000     -0.548897000
| 21> 8        4.683909000      1.438793000      0.678604000
| 22> 6        3.184700000     -0.445570000      0.583133000
| 23> 6        2.035827000     -0.081227000     -0.409878000
| 24> 6        0.782130000     -1.016288000     -0.349807000
| 25> 6       -0.410561000     -0.426256000     -1.035991000
| 26> 6       -1.858359000     -0.660195000     -0.701033000
| 27> 6       -2.488258000      0.503990000      0.127879000
| 28> 6       -3.996829000      0.369811000      0.494193000
| 29> 9        3.397314000     -1.782092000      0.544653000
| 30> 9        2.801213000     -0.110373000      1.834237000
| 31> 9        1.643232000      1.185791000     -0.141623000
| 32> 9        2.536838000     -0.115365000     -1.667829000
| 33> 9        1.127446000     -2.210280000     -0.921722000
| 34> 9        0.481906000     -1.262162000      0.948757000
| 35> 9       -0.182907000      0.241325000     -2.156596000
| 36> 9       -1.989268000     -1.809402000      0.004263000
| 37> 9       -2.558722000     -0.775470000     -1.858864000
| 38> 9       -2.338124000      1.645692000     -0.581931000
| 39> 9       -1.797657000      0.618599000      1.283908000
| 40> 9       -4.215444000     -0.724362000      1.229218000
| 41> 9       -4.360818000      1.442215000      1.208439000
| 42> 9       -4.755272000      0.314420000     -0.603228000
| 43> 1        6.072861000      0.154547000     -0.753914000
| 44> *
| 45>
| 46>                          ****END OF INPUT****

CARTESIAN COORDINATES (ANGSTROEM)
---------------------------------
  C      4.484661    0.335454    0.248514
  O      5.273086   -0.373078   -0.548897
  O      4.683909    1.438793    0.678604
  C      3.184700   -0.445570    0.583133
  C      2.035827   -0.081227   -0.409878
  C      0.782130   -1.016288   -0.349807
  C     -0.410561   -0.426256   -1.035991
  C     -1.858359   -0.660195   -0.701033
  C     -2.488258    0.503990    0.127879
  C     -3.996829    0.369811    0.494193
  F      3.397314   -1.782092    0.544653
  F      2.801213   -0.110373    1.834237
  F      1.643232    1.185791   -0.141623
  F      2.536838   -0.115365   -1.667829
  F      1.127446   -2.210280   -0.921722
  F      0.481906   -1.262162    0.948757
  F     -0.182907    0.241325   -2.156596
  F     -1.989268   -1.809402    0.004263
  F     -2.558722   -0.775470   -1.858864
  F     -2.338124    1.645692   -0.581931
  F     -1.797657    0.618599    1.283908
  F     -4.215444   -0.724362    1.229218
  F     -4.360818    1.442215    1.208439
  F     -4.755272    0.314420   -0.603228
  H      6.072861    0.154547   -0.753914

 Total Charge           Charge          ....    0
 Multiplicity           Mult            ....    2
 Number of Electrons    NEL             ....  191
 Basis Dimension        Dim             ....  750

ORBITAL ENERGIES
----------------
                 SPIN UP ORBITALS
  NO   OCC          E(Eh)            E(eV)
   0   1.0000     -24.675825      -671.4633
   1   1.0000     -24.660232      -671.0390
   2   1.0000     -24.660142      -671.0366
   3   1.0000     -24.659119      -671.0087
   4   1.0000     -24.659100      -671.0082
   5   1.0000     -24.658844      -671.0012
   6   1.0000     -24.657868      -670.9747
   7   1.0000     -24.657695      -670.9700
   8   1.0000     -24.656425      -670.9354
   9   1.0000     -24.656001      -670.9239
  10   1.0000     -24.654410      -670.8806
  11   1.0000     -24.649881      -670.7574
  12   1.0000     -24.648421      -670.7176
  13   1.0000     -24.647970      -670.7054
  14   1.0000     -19.133070      -520.6373
  15   1.0000     -19.079572      -519.1816
  16   1.0000     -10.395439      -282.8743
  17   1.0000     -10.345224      -281.5079
  18   1.0000     -10.342998      -281.4473
  19   1.0000     -10.340185      -281.3707
  20   1.0000     -10.338673      -281.3296
  21   1.0000     -10.331887      -281.1449
  22   1.0000     -10.280498      -279.7466
  23   1.0000     -10.269502      -279.4473
  24   1.0000      -1.321321       -35.9550
  25   1.0000      -1.294277       -35.2191
  26   1.0000      -1.288427       -35.0599
  27   1.0000      -1.276266       -34.7290
  28   1.0000      -1.271395       -34.5964
  29   1.0000      -1.270020       -34.5590
  30   1.0000      -1.265896       -34.4468
  31   1.0000      -1.235964       -33.6323
  32   1.0000      -1.230329       -33.4789
  33   1.0000      -1.228607       -33.4321
  34   1.0000      -1.225593       -33.3501
  35   1.0000      -1.218882       -33.1675
  36   1.0000      -1.214791       -33.0561
  37   1.0000      -1.213908       -33.0321
  38   1.0000      -1.118944       -30.4480
  39   1.0000      -1.035039       -28.1648
  40   1.0000      -0.838266       -22.8104
  41   1.0000      -0.810814       -22.0634
  42   1.0000      -0.789929       -21.4950
  43   1.0000      -0.754775       -20.5385
  44   1.0000      -0.709955       -19.3189
  45   1.0000      -0.677427       -18.4337
  46   1.0000      -0.649150       -17.6643
  47   1.0000      -0.641103       -17.4453
  48   1.0000      -0.620009       -16.8713
  49   1.0000      -0.615911       -16.7598
  50   1.0000      -0.610645       -16.6165
  51   1.0000      -0.605460       -16.4754
  52   1.0000      -0.601815       -16.3762
  53   1.0000      -0.593772       -16.1574
  54   1.0000      -0.586585       -15.9618
  55   1.0000      -0.582722       -15.8567
  56   1.0000      -0.578331       -15.7372
  57   1.0000      -0.571128       -15.5412
  58   1.0000      -0.562852       -15.3160
  59   1.0000      -0.560692       -15.2572
  60   1.0000      -0.552122       -15.0240
  61   1.0000      -0.544469       -14.8158
  62   1.0000      -0.510178       -13.8826
  63   1.0000      -0.497405       -13.5351
  64   1.0000      -0.481985       -13.1155
  65   1.0000      -0.477301       -12.9880
  66   1.0000      -0.475844       -12.9484
  67   1.0000      -0.474568       -12.9137
  68   1.0000      -0.473604       -12.8874
  69   1.0000      -0.465362       -12.6631
  70   1.0000      -0.462217       -12.5776
  71   1.0000      -0.460135       -12.5209
  72   1.0000      -0.455747       -12.4015
  73   1.0000      -0.453021       -12.3273
  74   1.0000      -0.449825       -12.2404
  75   1.0000      -0.448771       -12.2117
  76   1.0000      -0.445319       -12.1177
  77   1.0000      -0.438733       -11.9385
  78   1.0000      -0.434761       -11.8304
  79   1.0000      -0.432638       -11.7727
  80   1.0000      -0.430146       -11.7049
  81   1.0000      -0.428719       -11.6660
  82   1.0000      -0.423178       -11.5153
  83   1.0000      -0.419149       -11.4056
  84   1.0000      -0.417387       -11.3577
  85   1.0000      -0.415095       -11.2953
  86   1.0000      -0.412891       -11.2353
  87   1.0000      -0.411839       -11.2067
  88   1.0000      -0.410601       -11.1730
  89   1.0000      -0.403958       -10.9923
  90   1.0000      -0.389487       -10.5985
  91   1.0000      -0.358670        -9.7599
  92   1.0000      -0.341180        -9.2840
  93   1.0000      -0.338409        -9.2086
  94   1.0000      -0.296051        -8.0559
  95   1.0000      -0.261638        -7.1195
  96   0.0000      -0.065025        -1.7694
  97   0.0000      -0.012928        -0.3518
  98   0.0000       0.010105         0.2750
  99   0.0000       0.024496         0.6666
 100   0.0000       0.034548         0.9401

                 SPIN DOWN ORBITALS
  NO   OCC          E(Eh)            E(eV)
   0   1.0000     -24.671367      -671.3420
   1   1.0000     -24.660234      -671.0391
   2   1.0000     -24.660143      -671.0366
   3   1.0000     -24.659104      -671.0083
   4   1.0000     -24.659078      -671.0076
   5   1.0000     -24.658736      -670.9983
   6   1.0000     -24.657808      -670.9731
   7   1.0000     -24.657610      -670.9677
   8   1.0000     -24.656013      -670.9242
   9   1.0000     -24.655740      -670.9168
  10   1.0000     -24.653825      -670.8647
  11   1.0000     -24.649880      -670.7573
  12   1.0000     -24.648418      -670.7176
  13   1.0000     -24.646356      -670.6615
  14   1.0000     -19.133069      -520.6373
  15   1.0000     -19.079563      -519.1813
  16   1.0000     -10.395310      -282.8708
  17   1.0000     -10.346169      -281.5336
  18   1.0000     -10.343794      -281.4689
  19   1.0000     -10.339543      -281.3533
  20   1.0000     -10.338464      -281.3239
  21   1.0000     -10.331876      -281.1447
  22   1.0000     -10.280492      -279.7464
  23   1.0000     -10.253725      -279.0180
  24   1.0000      -1.321200       -35.9517
  25   1.0000      -1.293146       -35.1883
  26   1.0000      -1.287637       -35.0384
  27   1.0000      -1.274642       -34.6848
  28   1.0000      -1.270654       -34.5763
  29   1.0000      -1.269367       -34.5412
  30   1.0000      -1.259327       -34.2680
  31   1.0000      -1.235834       -33.6287
  32   1.0000      -1.230180       -33.4749
  33   1.0000      -1.228192       -33.4208
  34   1.0000      -1.225236       -33.3404
  35   1.0000      -1.218029       -33.1443
  36   1.0000      -1.214070       -33.0365
  37   1.0000      -1.212526       -32.9945
  38   1.0000      -1.118937       -30.4478
  39   1.0000      -1.035026       -28.1645
  40   1.0000      -0.826188       -22.4817
  41   1.0000      -0.809978       -22.0406
  42   1.0000      -0.783457       -21.3190
  43   1.0000      -0.753115       -20.4933
  44   1.0000      -0.705647       -19.2016
  45   1.0000      -0.675973       -18.3942
  46   1.0000      -0.644414       -17.5354
  47   1.0000      -0.640744       -17.4355
  48   1.0000      -0.617732       -16.8094
  49   1.0000      -0.613818       -16.7028
  50   1.0000      -0.609790       -16.5932
  51   1.0000      -0.604474       -16.4486
  52   1.0000      -0.600839       -16.3497
  53   1.0000      -0.591661       -16.0999
  54   1.0000      -0.585366       -15.9286
  55   1.0000      -0.581117       -15.8130
  56   1.0000      -0.576433       -15.6855
  57   1.0000      -0.569875       -15.5071
  58   1.0000      -0.561686       -15.2843
  59   1.0000      -0.558141       -15.1878
  60   1.0000      -0.550560       -14.9815
  61   1.0000      -0.544046       -14.8042
  62   1.0000      -0.497414       -13.5353
  63   1.0000      -0.486304       -13.2330
  64   1.0000      -0.480250       -13.0683
  65   1.0000      -0.475764       -12.9462
  66   1.0000      -0.474388       -12.9088
  67   1.0000      -0.473323       -12.8798
  68   1.0000      -0.471794       -12.8382
  69   1.0000      -0.465027       -12.6540
  70   1.0000      -0.461495       -12.5579
  71   1.0000      -0.458605       -12.4793
  72   1.0000      -0.455194       -12.3865
  73   1.0000      -0.452360       -12.3093
  74   1.0000      -0.448837       -12.2135
  75   1.0000      -0.447195       -12.1688
  76   1.0000      -0.443047       -12.0559
  77   1.0000      -0.437059       -11.8930
  78   1.0000      -0.434006       -11.8099
  79   1.0000      -0.431970       -11.7545
  80   1.0000      -0.429878       -11.6976
  81   1.0000      -0.427287       -11.6271
  82   1.0000      -0.422868       -11.5068
  83   1.0000      -0.417760       -11.3678
  84   1.0000      -0.416769       -11.3409
  85   1.0000      -0.414595       -11.2817
  86   1.0000      -0.412298       -11.2192
  87   1.0000      -0.411542       -11.1986
  88   1.0000      -0.409930       -11.1548
  89   1.0000      -0.402835       -10.9617
  90   1.0000      -0.388421       -10.5695
  91   1.0000      -0.356236        -9.6937
  92   1.0000      -0.340487        -9.2651
  93   1.0000      -0.337354        -9.1799
  94   1.0000      -0.295807        -8.0493
  95   0.0000      -0.137238        -3.7344
  96   0.0000      -0.064029        -1.7423
  97   0.0000      -0.007859        -0.2139
  98   0.0000       0.012631         0.3437
  99   0.0000       0.029618         0.8059

MULLIKEN ATOMIC CHARGES AND SPIN POPULATIONS
--------------------------------------------
   0 C :    0.224779    0.000346
   1 O :   -0.338789   -0.000045
   2 O :   -0.289166    0.000336
   3 C :    0.381468    0.000998
   4 C :    0.267680   -0.003513
   5 C :    0.320092    0.000873
   6 C :    0.134167    0.858727
   7 C :    0.308476   -0.030337
   8 C :    0.291769    0.026645
   9 C :    0.411651    0.004981
  10 F :   -0.159191   -0.000057
  11 F :   -0.156005    0.000081
  12 F :   -0.157312    0.000680
  13 F :   -0.157163    0.001747
  14 F :   -0.161283    0.030761
  15 F :   -0.157080    0.003412
  16 F :   -0.125695    0.085224
  17 F :   -0.153664    0.006533
  18 F :   -0.153852    0.010888
  19 F :   -0.153407   -0.000090
  20 F :   -0.151893   -0.000303
  21 F :   -0.136761   -0.000010
  22 F :   -0.135036    0.002130
  23 F :   -0.135943   -0.000040
  24 H :    0.382156    0.000033
Sum of atomic charges         :    0.0000000

LOEWDIN ATOMIC CHARGES AND SPIN POPULATIONS
-------------------------------------------
   0 C :   -0.490894    0.000321
   1 O :    0.156264    0.000017
   2 O :    0.135247    0.000290
   3 C :   -0.452454    0.000908
   4 C :   -0.448133    0.006197
   5 C :   -0.474439    0.061767
   6 C :   -0.158617    0.664914
   7 C :   -0.480643    0.061138
   8 C :   -0.461215    0.022815
   9 C :   -0.665882    0.004393
  10 F :    0.210508    0.000035
  11 F :    0.214835    0.000118
  12 F :    0.223581    0.001662
  13 F :    0.220190    0.002110
  14 F :    0.194568    0.033999
  15 F :    0.220344    0.006349
  16 F :    0.267252    0.109123
  17 F :    0.220280    0.008162
  18 F :    0.214266    0.011589
  19 F :    0.221684    0.000617
  20 F :    0.223419    0.000969
  21 F :    0.226044    0.000047
  22 F :    0.222615    0.002420
  23 F :    0.227289    0.000016
  24 H :    0.233891    0.000024

  Mayer bond orders larger than 0.100000
B(  0-C ,  1-O ) :   1.3127 B(  0-C ,  2-O ) :   2.0716 B(  0-C ,  3-C ) :   0.9024
B(  1-O , 24-H ) :   0.8195 B(  3-C ,  4-C ) :   0.9510 B(  3-C , 10-F ) :   1.1019
B(  3-C , 11-F ) :   1.1208 B(  4-C ,  5-C ) :   0.9380 B(  4-C , 12-F ) :   1.0929
B(  4-C , 13-F ) :   1.0788 B(  5-C ,  6-C ) :   1.0664 B(  5-C , 14-F ) :   1.0790
B(  5-C , 15-F ) :   1.0754 B(  6-C ,  7-C ) :   1.0282 B(  6-C , 16-F ) :   1.1351
B(  7-C ,  8-C ) :   0.9325 B(  7-C , 17-F ) :   1.1025 B(  7-C , 18-F ) :   1.0952
B(  8-C ,  9-C ) :   0.9677 B(  8-C , 19-F ) :   1.0879 B(  8-C , 20-F ) :   1.0959
B(  9-C , 21-F ) :   1.1657 B(  9-C , 22-F ) :   1.1576 B(  9-C , 23-F ) :   1.1675

Dispersion correction           -0.029740370
FINAL SINGLE POINT ENERGY     -1854.409446528314

DIPOLE MOMENT
-------------

Method             : SCF
Type of density    : Electron Density
Multiplicity       :   2
Irrep              :   0
Energy             : -1854.3797061585808024 Eh
Relativity type    :
Basis              : AO
                                X                 Y                 Z
Electronic contribution:    -14.094939299      -1.490441591      -0.031581787
Nuclear contribution   :     15.069884480       1.332388215      -0.739262086
                        -----------------------------------------
Total Dipole Moment    :      0.974945182      -0.158053376      -0.770843873
                        -----------------------------------------
Magnitude (a.u.)       :      1.252876392
Magnitude (Debye)      :      3.184558708

VIBRATIONAL FREQUENCIES
-----------------------

Scaling factor for frequencies =  1.000000000  (already applied!)

     0:       0.00 cm**-1
     1:       0.00 cm**-1
     2:       0.00 cm**-1
     3:       0.00 cm**-1
     4:       0.00 cm**-1
     5:       0.00 cm**-1
     6:     -15.04 cm**-1  ***imaginary mode***
     7:      18.72 cm**-1
     8:      30.97 cm**-1
     9:      39.31 cm**-1
    10:      50.94 cm**-1
    11:      59.93 cm**-1
    12:      68.84 cm**-1
    13:      76.95 cm**-1
    14:      97.14 cm**-1
    15:     122.40 cm**-1
    16:     140.92 cm**-1
    17:     177.61 cm**-1
    18:     181.67 cm**-1
    19:     193.44 cm**-1
    20:     197.10 cm**-1
    21:     213.65 cm**-1
    22:     217.56 cm**-1
    23:     232.72 cm**-1
    24:     252.25 cm**-1
    25:     270.82 cm**-1
    26:     277.18 cm**-1
    27:     302.24 cm**-1
    28:     322.58 cm**-1
    29:     333.17 cm**-1
    30:     343.96 cm**-1
    31:     359.66 cm**-1
    32:     361.05 cm**-1
    33:     367.46 cm**-1
    34:     384.92 cm**-1
    35:     429.07 cm**-1
    36:     457.36 cm**-1
    37:     500.14 cm**-1
    38:     510.34 cm**-1
    39:     521.45 cm**-1
    40:     533.56 cm**-1
    41:     560.85 cm**-1
    42:     572.31 cm**-1
    43:     585.71 cm**-1
    44:     598.64 cm**-1
    45:     615.01 cm**-1
    46:     630.70 cm**-1
    47:     666.78 cm**-1
    48:     685.56 cm**-1
    49:     707.66 cm**-1
    50:     747.70 cm**-1
    51:     769.12 cm**-1
    52:     857.30 cm**-1
    53:     983.61 cm**-1
    54:    1037.89 cm**-1
    55:    1087.32 cm**-1
    56:    1094.83 cm**-1
    57:    1114.44 cm**-1
    58:    1123.73 cm**-1
    59:    1132.75 cm**-1
    60:    1135.16 cm**-1
    61:    1140.38 cm**-1
    62:    1143.93 cm**-1
    63:    1150.23 cm**-1
    64:    1175.43 cm**-1
    65:    1183.89 cm**-1
    66:    1214.71 cm**-1
    67:    1225.35 cm**-1
    68:    1240.61 cm**-1
    69:    1300.01 cm**-1
    70:    1323.42 cm**-1
    71:    1373.24 cm**-1
    72:    1398.01 cm**-1
    73:    1808.20 cm**-1
    74:    3601.74 cm**-1

IR SPECTRUM
-----------

 Mode   freq       eps      Int      T**2         TX        TY        TZ
       cm**-1   L/(mol*cm) km/mol    a.u.
----------------------------------------------------------------------------
  7:     18.72   0.000019    0.10  0.000315  (-0.009127 -0.000579 -0.015200)
  8:     30.97   0.000023    0.12  0.000235  (-0.002421 -0.013565  0.006696)
  9:     39.31   0.000130    0.66  0.001036  (-0.008748  0.009421 -0.029502)
 10:     50.94   0.000152    0.77  0.000934  (-0.019576 -0.002269 -0.023352)
 11:     59.93   0.000246    1.24  0.001280  ( 0.017880  0.017376  0.025662)
 12:     68.84   0.000034    0.17  0.000153  ( 0.006381  0.001322  0.010508)
 13:     76.95   0.000026    0.13  0.000106  ( 0.003203  0.007858  0.005820)
 14:     97.14   0.000038    0.19  0.000123  ( 0.003931 -0.004524 -0.009327)
 15:    122.40   0.000210    1.06  0.000534  ( 0.009156  0.013504 -0.016380)
 16:    140.92   0.000471    2.38  0.001042  (-0.027708  0.007293 -0.014877)
 17:    177.61   0.000547    2.76  0.000961  ( 0.015441 -0.005470 -0.026309)
 18:    181.67   0.000333    1.68  0.000572  ( 0.009930  0.006088 -0.020879)
 19:    193.44   0.001073    5.42  0.001732  (-0.002109  0.008300  0.040722)
 20:    197.10   0.001076    5.44  0.001704  ( 0.028256 -0.029426  0.006323)
 21:    213.65   0.000186    0.94  0.000272  (-0.000842  0.000373  0.016453)
 22:    217.56   0.000007    0.04  0.000010  ( 0.001391  0.002905 -0.000245)
 23:    232.72   0.000090    0.45  0.000121  ( 0.002486 -0.004639 -0.009639)
 24:    252.25   0.000437    2.21  0.000541  (-0.018946 -0.013256  0.002460)
 25:    270.82   0.000959    4.85  0.001106  ( 0.030875 -0.012234 -0.001638)
 26:    277.18   0.000345    1.74  0.000388  (-0.005091  0.014338  0.012520)
 27:    302.24   0.000007    0.03  0.000007  (-0.000188 -0.001878 -0.001823)
 28:    322.58   0.000009    0.05  0.000009  (-0.002636  0.000717  0.001266)
 29:    333.17   0.000255    1.29  0.000239  (-0.012803 -0.005316 -0.006843)
 30:    343.96   0.000263    1.33  0.000239  (-0.006620  0.005599  0.012796)
 31:    359.66   0.000019    0.10  0.000017  ( 0.003949 -0.000810 -0.000504)
 32:    361.05   0.000019    0.10  0.000017  ( 0.000762  0.000422 -0.003969)
 33:    367.46   0.000774    3.91  0.000657  ( 0.016698  0.018451  0.006149)
 34:    384.92   0.000508    2.57  0.000412  ( 0.015016 -0.011844  0.006800)
 35:    429.07   0.000245    1.24  0.000179  (-0.007668 -0.000448  0.010933)
 36:    457.36   0.000882    4.46  0.000602  (-0.020729 -0.013029 -0.001574)
 37:    500.14   0.003582   18.10  0.002235  ( 0.040268  0.018033 -0.016985)
 38:    510.34   0.004322   21.84  0.002643  (-0.044361  0.011599  0.023245)
 39:    521.45   0.001851    9.36  0.001108  ( 0.010218 -0.029189 -0.012312)
 40:    533.56   0.005462   27.60  0.003194  ( 0.053713  0.016611 -0.005777)
 41:    560.85   0.009592   48.47  0.005337  (-0.033442  0.031162 -0.056988)
 42:    572.31   0.011919   60.23  0.006499  ( 0.077736  0.019947 -0.007643)
 43:    585.71   0.003626   18.32  0.001932  (-0.002229  0.022426 -0.037736)
 44:    598.64   0.003712   18.76  0.001935  ( 0.011289 -0.024641  0.034645)
 45:    615.01   0.026886  135.87  0.013642  ( 0.113142 -0.029001  0.000057)
 46:    630.70   0.039056  197.37  0.019324  (-0.113044  0.025787 -0.076683)
 47:    666.78   0.007150   36.13  0.003346  (-0.049516  0.008638  0.028630)
 48:    685.56   0.000850    4.30  0.000387  (-0.000917  0.018231 -0.007333)
 49:    707.66   0.012693   64.14  0.005597  ( 0.069212 -0.013688 -0.024891)
 50:    747.70   0.005898   29.80  0.002462  ( 0.008935  0.000033 -0.048803)
 51:    769.12   0.007013   35.44  0.002846  (-0.039299 -0.010003  0.034656)
 52:    857.30   0.022399  113.20  0.008153  ( 0.021096 -0.057932 -0.065972)
 53:    983.61   0.007291   36.85  0.002313  ( 0.037641 -0.008790 -0.028621)
 54:   1037.89   0.051710  261.32  0.015548  (-0.051526  0.108257  0.034252)
 55:   1087.32   0.036053  182.20  0.010347  ( 0.082474  0.059092 -0.007324)
 56:   1094.83   0.027077  136.84  0.007718  (-0.046168 -0.042169 -0.061712)
 57:   1114.44   0.004117   20.80  0.001153  (-0.012419  0.022812 -0.021866)
 58:   1123.73   0.074693  377.47  0.020742  ( 0.059047  0.014594 -0.130548)
 59:   1132.75   0.055488  280.41  0.015286  (-0.039262  0.105978  0.050136)
 60:   1135.16   0.008037   40.62  0.002209  (-0.000639  0.034758 -0.031636)
 61:   1140.38   0.063585  321.33  0.017400  ( 0.072174 -0.103561  0.038288)
 62:   1143.93   0.110468  558.26  0.030136  ( 0.023183  0.001143 -0.172037)
 63:   1150.23   0.120736  610.15  0.032757  ( 0.028291  0.175042  0.036280)
 64:   1175.43   0.098672  498.65  0.026196  ( 0.036135 -0.076666  0.137887)
 65:   1183.89   0.012755   64.46  0.003362  (-0.038690  0.017004  0.039700)
 66:   1214.71   0.004725   23.88  0.001214  ( 0.019812  0.027424  0.008323)
 67:   1225.35   0.003112   15.73  0.000793  ( 0.004083 -0.015638 -0.023050)
 68:   1240.61   0.017978   90.85  0.004522  ( 0.016288 -0.042867  0.049186)
 69:   1300.01   0.022000  111.18  0.005281  (-0.049169  0.015443  0.051235)
 70:   1323.42   0.025259  127.65  0.005956  (-0.076583  0.005212 -0.008001)
 71:   1373.24   0.015261   77.12  0.003468  ( 0.049962 -0.008417  0.030014)
 72:   1398.01   0.013021   65.80  0.002906  (-0.038963  0.016493  0.033411)
 73:   1808.20   0.090508  457.39  0.015620  (-0.000041 -0.107557 -0.063652)
 74:   3601.74   0.048070  242.93  0.004165  (-0.058035 -0.014052  0.024482)

--------------------------
THERMOCHEMISTRY AT 298.15K
--------------------------

Temperature         ...   298.15 K
Pressure            ...     1.00 atm
Total Mass          ...   395.07 AMU
Quasi RRHO          ...     True
Cut-Off Frequency   ...     1.00 cm^-1

Throughout the following assumptions are being made:
  (1) The electronic state is orbitally nondegenerate
      but the spin degeneracy is treated
  (2) There are no thermally accessible electronically excited states
  (3) Hindered rotations indicated by low frequency modes are not
      treated as such but are treated as vibrations and this may
      cause some error
  (4) All equations used are the standard statistical mechanics
      equations for an ideal gas
  (5) All vibrations are strictly harmonic

freq.      18.72  E(vib)   ...       0.57
freq.      30.97  E(vib)   ...       0.55
freq.      39.31  E(vib)   ...       0.54
freq.      50.94  E(vib)   ...       0.52
freq.      59.93  E(vib)   ...       0.51
freq.      68.84  E(vib)   ...       0.50
freq.      76.95  E(vib)   ...       0.49
freq.      97.14  E(vib)   ...       0.46
freq.     122.40  E(vib)   ...       0.43
freq.     140.92  E(vib)   ...       0.41
freq.     177.61  E(vib)   ...       0.37
freq.     181.67  E(vib)   ...       0.37
freq.     193.44  E(vib)   ...       0.36
freq.     197.10  E(vib)   ...       0.35
freq.     213.65  E(vib)   ...       0.34
freq.     217.56  E(vib)   ...       0.33
freq.     232.72  E(vib)   ...       0.32
freq.     252.25  E(vib)   ...       0.30
freq.     270.82  E(vib)   ...       0.29
freq.     277.18  E(vib)   ...       0.28
freq.     302.24  E(vib)   ...       0.26
freq.     322.58  E(vib)   ...       0.25
freq.     333.17  E(vib)   ...       0.24
freq.     343.96  E(vib)   ...       0.23
freq.     359.66  E(vib)   ...       0.22
freq.     361.05  E(vib)   ...       0.22
freq.     367.46  E(vib)   ...       0.21
freq.     384.92  E(vib)   ...       0.20
freq.     429.07  E(vib)   ...       0.18
freq.     457.36  E(vib)   ...       0.16
freq.     500.14  E(vib)   ...       0.14
freq.     510.34  E(vib)   ...       0.14
freq.     521.45  E(vib)   ...       0.13
freq.     533.56  E(vib)   ...       0.13
freq.     560.85  E(vib)   ...       0.11
freq.     572.31  E(vib)   ...       0.11
freq.     585.71  E(vib)   ...       0.11
freq.     598.64  E(vib)   ...       0.10
freq.     615.01  E(vib)   ...       0.10
freq.     630.70  E(vib)   ...       0.09
freq.     666.78  E(vib)   ...       0.08
freq.     685.56  E(vib)   ...       0.07
freq.     707.66  E(vib)   ...       0.07
freq.     747.70  E(vib)   ...       0.06
freq.     769.12  E(vib)   ...       0.06
freq.     857.30  E(vib)   ...       0.04
freq.     983.61  E(vib)   ...       0.02
freq.    1037.89  E(vib)   ...       0.02
freq.    1087.32  E(vib)   ...       0.02
freq.    1094.83  E(vib)   ...       0.02
freq.    1114.44  E(vib)   ...       0.01
freq.    1123.73  E(vib)   ...       0.01
freq.    1132.75  E(vib)   ...       0.01
freq.    1135.16  E(vib)   ...       0.01
freq.    1140.38  E(vib)   ...       0.01
freq.    1143.93  E(vib)   ...       0.01
freq.    1150.23  E(vib)   ...       0.01
freq.    1175.43  E(vib)   ...       0.01
freq.    1183.89  E(vib)   ...       0.01
freq.    1214.71  E(vib)   ...       0.01
freq.    1225.35  E(vib)   ...       0.01
freq.    1240.61  E(vib)   ...       0.01
freq.    1300.01  E(vib)   ...       0.01
freq.    1323.42  E(vib)   ...       0.01
freq.    1373.24  E(vib)   ...       0.01
freq.    1398.01  E(vib)   ...       0.00
freq.    1808.20  E(vib)   ...       0.00
freq.    3601.74  E(vib)   ...       0.00

------------
INNER ENERGY
------------

The inner energy is: U= E(el) + E(ZPE) + E(vib) + E(rot) + E(trans)
    E(el)   - is the total energy from the electronic structure calculation
              = E(kin-el) + E(nuc-el) + E(el-el) + E(nuc-nuc)
    E(ZPE)  - the the zero temperature vibrational energy from the frequency calculation
    E(vib)  - the the finite temperature correction to E(ZPE) due to population
              of excited vibrational states
    E(rot)  - is the rotational thermal energy
    E(trans)- is the translational thermal energy

Summary of contributions to the inner energy U:
Electronic energy                ...  -1854.40944653 Eh
Zero point energy                ...      0.10396038 Eh      65.24 kcal/mol
Thermal vibrational correction   ...      0.01954299 Eh      12.26 kcal/mol
Thermal rotational correction    ...      0.00141627 Eh       0.89 kcal/mol
Thermal translational correction ...      0.00141627 Eh       0.89 kcal/mol
-----------------------------------------------------------------------
Total thermal energy                  -1854.28311061 Eh

Summary of corrections to the electronic energy:
(perhaps to be used in another calculation)
Total thermal correction                  0.02237554 Eh      14.04 kcal/mol
Non-thermal (ZPE) correction              0.10396038 Eh      65.24 kcal/mol
-----------------------------------------------------------------------
Total correction                          0.12633591 Eh      79.28 kcal/mol

--------
ENTHALPY
--------

The enthalpy is H = U + kB*T
                kB is Boltzmann's constant
Total thermal energy              ...  -1854.28311061 Eh
Thermal Enthalpy correction       ...      0.00094421 Eh       0.59 kcal/mol
-----------------------------------------------------------------------
Total Enthalpy                    ...  -1854.28216641 Eh

Note: Only C1 symmetry has been detected, increase convergence thresholds
      if your molecule has a higher symmetry. Symmetry factor of 1.0 is
      used for the rotational entropy correction.

Note: Rotational entropy computed according to Herzberg
Infrared and Raman Spectra, Chapter V,1, Van Nostrand Reinhold, 1945
Point Group:  C1, Symmetry Number:   1
Rotational constants in cm-1:     0.018916     0.004181     0.004077

Vibrational entropy computed according to the QRRHO of S. Grimme
Chem.Eur.J. 2012 18 9955 using a reference frequency of 100.0 cm-1

-------
ENTROPY
-------

The entropy contributions are T*S = T*(S(el)+S(vib)+S(rot)+S(trans))
     S(el)   - electronic entropy
     S(vib)  - vibrational entropy
     S(rot)  - rotational entropy
     S(trans)- translational entropy
The entropies will be listed as multiplied by the temperature to get
units of energy

Electronic entropy                ...      0.00065446 Eh      0.41 kcal/mol
Vibrational entropy               ...      0.03507599 Eh     22.01 kcal/mol
Rotational entropy                ...      0.01656723 Eh     10.40 kcal/mol

                             ****ORCA TERMINATED NORMALLY****
TOTAL RUN TIME: 0 days 0 hours 22 minutes 42 seconds 668 msec
