                         Program Version 6.0.1  -  RELEASE   -
|  1> !B3LYP def2-TZVP opt d3 TightSCF SlowConv defgrid2
|  2>
|  3> %pal
|  4> nprocs 20
|  5> end
|  6>
|  7> %scf
|  8> MaxIter 1500
|  9> end
| 10>
| 11> %maxcore 8000
| 12>
| 13> !CPCM
| 14> %cpcm smd true
| 15> SMDsolvent "ACETONITRILE"
| 16> end
| 17>
| 18> * xyz -1 1
| 19> 6        7.061480798     27.780530965      3.106576640
| 20> 6        6.358244798     26.583375965      2.416992640
| 21> 6        7.290739798     25.361615965      2.191470640
| 22> 6        6.503816798     24.050508965      1.905927640
| 23> 6        7.390081798     22.949036965      1.254848640
| 24> 6        6.769590798     21.526080965      1.366223640
| 25> 6        7.389881798     20.495443965      0.400529640
| 26> 6        7.047594798     19.000380965      0.790287640
| 27> 9        8.211006798     28.061334965      2.509442640
| 28> 9        7.286980798     27.526353965      4.384782640
| 29> 9        6.271788798     28.845445965      3.024205640
| 30> 9        5.320618798     26.239799965      3.188367640
| 31> 9        5.906995798     27.014763965      1.236217640
| 32> 9        8.092105798     25.656497965      1.162788640
| 33> 9        8.034091798     25.196969965      3.293178640
| 34> 9        6.010694798     23.624429965      3.072509640
| 35> 9        5.491631798     24.352956965      1.082460640
| 36> 9        7.554809798     23.292706965     -0.028459360
| 37> 9        8.581822798     22.977688965      1.870991640
| 38> 9        6.960326798     21.133942965      2.637027640
| 39> 9        5.455181798     21.663434965      1.139465640
| 40> 9        6.910796798     20.782536965     -0.839488360
| 41> 9        8.723370798     20.748082965      0.370020640
| 42> 8        8.017941798     18.242246965      0.795072640
| 43> 8        5.838755798     18.846145965      1.003745640
| 44> 8        3.022589945     18.615377681      1.418469618
| 45> 1        2.921133959     17.670398128      1.249412630
| 46> 1        3.952270754     18.785006115      1.221543930
| 47> 1        9.651244624     17.272645385      0.841919800
| 48> 8       10.455174784     16.738287734      0.846178529
| 49> 1       10.221449611     15.976809483      1.391507198
| 50> *
| 51>
| 52>                          ****END OF INPUT****
 Total Charge           Charge          ....   -1
 Multiplicity           Mult            ....    1
 Number of Electrons    NEL             ....  220
Dispersion correction           -0.048874232
FINAL SINGLE POINT ENERGY     -2106.076686696419
Dispersion correction             ... done (  0.0 sec)
Dispersion correction           -0.048308216
FINAL SINGLE POINT ENERGY     -2106.080522985597
Dispersion correction             ... done (  0.0 sec)
Dispersion correction           -0.048346759
FINAL SINGLE POINT ENERGY     -2106.081034880371
Dispersion correction             ... done (  0.0 sec)
FINAL SINGLE POINT ENERGY     -2106.081176442988
FINAL SINGLE POINT ENERGY     -2106.081293988912
FINAL SINGLE POINT ENERGY     -2106.081659171091
FINAL SINGLE POINT ENERGY     -2106.080168539949
FINAL SINGLE POINT ENERGY     -2106.073710323875
FINAL SINGLE POINT ENERGY     -2106.070416766880
FINAL SINGLE POINT ENERGY     -2106.081652678589
FINAL SINGLE POINT ENERGY     -2106.085187267600
FINAL SINGLE POINT ENERGY     -2106.085202503770
FINAL SINGLE POINT ENERGY     -2106.085224615219
FINAL SINGLE POINT ENERGY     -2106.085243598668
FINAL SINGLE POINT ENERGY     -2106.085264688771
FINAL SINGLE POINT ENERGY     -2106.085282401265
FINAL SINGLE POINT ENERGY     -2106.085290145410
Dispersion correction             ... done (  0.0 sec)
Dispersion correction           -0.050216738
FINAL SINGLE POINT ENERGY     -2106.085295650378
Dispersion correction             ... done (  0.0 sec)
Dispersion correction           -0.050237839
FINAL SINGLE POINT ENERGY     -2106.085299018966
Dispersion correction             ... done (  0.0 sec)
                    ***********************HURRAY********************

CARTESIAN COORDINATES (ANGSTROEM)
---------------------------------
  C      7.418057   27.544921    3.038601
  C      6.561153   26.327061    2.561106
  C      7.405969   25.080944    2.130351
  C      6.563991   23.756975    2.054407
  C      7.240136   22.645392    1.176553
  C      6.683882   21.206524    1.449355
  C      6.972427   20.170598    0.323107
  C      6.818648   18.688986    0.837739
  F      8.388493   27.809862    2.160435
  F      7.963387   27.304424    4.230417
  F      6.627486   28.615075    3.139954
  F      5.736146   25.986896    3.571368
  F      5.822876   26.732476    1.511959
  F      7.946636   25.340905    0.923270
  F      8.403174   24.900333    3.018839
  F      6.397831   23.296039    3.309830
  F      5.351958   24.035903    1.533641
  F      7.039541   22.961545   -0.119715
  F      8.567605   22.649520    1.421671
  F      7.245728   20.757342    2.597407
  F      5.348646   21.289776    1.639096
  F      6.109349   20.410302   -0.703867
  F      8.226607   20.405155   -0.151374
  O      7.877138   18.069393    1.020731
  O      5.641919   18.328037    1.007619
  O      3.071988   19.210601    0.405220
  H      2.613362   18.362625    0.442175
  H      4.007190   18.993225    0.598889
  H      9.548171   18.713452    1.291504
  O     10.453921   18.979179    1.555231
  H     10.650800   18.437376    2.328701

 Multiplicity           Mult            ....    1
 Number of Electrons    NEL             ....  220
 Basis Dimension        Dim             ....  861

ORBITAL ENERGIES
----------------

  NO   OCC          E(Eh)            E(eV)
   0   2.0000     -24.744753      -673.3389
   1   2.0000     -24.743784      -673.3126
   2   2.0000     -24.743758      -673.3119
   3   2.0000     -24.743407      -673.3023
   4   2.0000     -24.743398      -673.3021
   5   2.0000     -24.743220      -673.2972
   6   2.0000     -24.742274      -673.2715
   7   2.0000     -24.741165      -673.2413
   8   2.0000     -24.741039      -673.2379
   9   2.0000     -24.736798      -673.1225
  10   2.0000     -24.736227      -673.1070
  11   2.0000     -24.727803      -672.8777
  12   2.0000     -24.727499      -672.8694
  13   2.0000     -24.706590      -672.3005
  14   2.0000     -24.705932      -672.2826
  15   2.0000     -19.089173      -519.4428
  16   2.0000     -19.088753      -519.4314
  17   2.0000     -19.083921      -519.2999
  18   2.0000     -19.082950      -519.2735
  19   2.0000     -10.461175      -284.6631
  20   2.0000     -10.408498      -283.2296
  21   2.0000     -10.407186      -283.1939
  22   2.0000     -10.405953      -283.1604
  23   2.0000     -10.400095      -283.0010
  24   2.0000     -10.387045      -282.6459
  25   2.0000     -10.355012      -281.7742
  26   2.0000     -10.275136      -279.6007
  27   2.0000      -1.353652       -36.8347
  28   2.0000      -1.331100       -36.2211
  29   2.0000      -1.316485       -35.8234
  30   2.0000      -1.307818       -35.5875
  31   2.0000      -1.305084       -35.5131
  32   2.0000      -1.295939       -35.2643
  33   2.0000      -1.272156       -34.6171
  34   2.0000      -1.267167       -34.4814
  35   2.0000      -1.260786       -34.3077
  36   2.0000      -1.260370       -34.2964
  37   2.0000      -1.254084       -34.1253
  38   2.0000      -1.250350       -34.0237
  39   2.0000      -1.247237       -33.9390
  40   2.0000      -1.238069       -33.6896
  41   2.0000      -1.214184       -33.0396
  42   2.0000      -1.047569       -28.5058
  43   2.0000      -0.976099       -26.5610
  44   2.0000      -0.973159       -26.4810
  45   2.0000      -0.961164       -26.1546
  46   2.0000      -0.847516       -23.0621
  47   2.0000      -0.827055       -22.5053
  48   2.0000      -0.798807       -21.7366
  49   2.0000      -0.761943       -20.7335
  50   2.0000      -0.720312       -19.6007
  51   2.0000      -0.691099       -18.8058
  52   2.0000      -0.674332       -18.3495
  53   2.0000      -0.651630       -17.7317
  54   2.0000      -0.646800       -17.6003
  55   2.0000      -0.638437       -17.3728
  56   2.0000      -0.631441       -17.1824
  57   2.0000      -0.627520       -17.0757
  58   2.0000      -0.625212       -17.0129
  59   2.0000      -0.613389       -16.6912
  60   2.0000      -0.609992       -16.5987
  61   2.0000      -0.606355       -16.4998
  62   2.0000      -0.598201       -16.2779
  63   2.0000      -0.588002       -16.0004
  64   2.0000      -0.586122       -15.9492
  65   2.0000      -0.579951       -15.7813
  66   2.0000      -0.574465       -15.6320
  67   2.0000      -0.558408       -15.1951
  68   2.0000      -0.518307       -14.1038
  69   2.0000      -0.514419       -13.9980
  70   2.0000      -0.513770       -13.9804
  71   2.0000      -0.508861       -13.8468
  72   2.0000      -0.504938       -13.7401
  73   2.0000      -0.500868       -13.6293
  74   2.0000      -0.498987       -13.5781
  75   2.0000      -0.497692       -13.5429
  76   2.0000      -0.494449       -13.4546
  77   2.0000      -0.487944       -13.2776
  78   2.0000      -0.483904       -13.1677
  79   2.0000      -0.481667       -13.1068
  80   2.0000      -0.478902       -13.0316
  81   2.0000      -0.473256       -12.8780
  82   2.0000      -0.471429       -12.8282
  83   2.0000      -0.464372       -12.6362
  84   2.0000      -0.463645       -12.6164
  85   2.0000      -0.462154       -12.5759
  86   2.0000      -0.453883       -12.3508
  87   2.0000      -0.452868       -12.3232
  88   2.0000      -0.450138       -12.2489
  89   2.0000      -0.446128       -12.1398
  90   2.0000      -0.444806       -12.1038
  91   2.0000      -0.442592       -12.0435
  92   2.0000      -0.441692       -12.0191
  93   2.0000      -0.437608       -11.9079
  94   2.0000      -0.436904       -11.8888
  95   2.0000      -0.431774       -11.7492
  96   2.0000      -0.426038       -11.5931
  97   2.0000      -0.422285       -11.4910
  98   2.0000      -0.417302       -11.3554
  99   2.0000      -0.406048       -11.0491
 100   2.0000      -0.403886       -10.9903
 101   2.0000      -0.377385       -10.2692
 102   2.0000      -0.358479        -9.7547
 103   2.0000      -0.356440        -9.6992
 104   2.0000      -0.345680        -9.4064
 105   2.0000      -0.287400        -7.8206
 106   2.0000      -0.285484        -7.7684
 107   2.0000      -0.270494        -7.3605
 108   2.0000      -0.260449        -7.0872
 109   2.0000      -0.259498        -7.0613
 110   0.0000      -0.011831        -0.3219
 111   0.0000       0.002874         0.0782
 112   0.0000       0.019645         0.5346
 113   0.0000       0.044284         1.2050
 114   0.0000       0.053230         1.4485

MULLIKEN ATOMIC CHARGES
-----------------------
   0 C :    0.476069
   1 C :    0.324533
   2 C :    0.313010
   3 C :    0.331814
   4 C :    0.337284
   5 C :    0.301111
   6 C :    0.349132
   7 C :    0.245620
   8 F :   -0.155288
   9 F :   -0.152728
  10 F :   -0.152437
  11 F :   -0.165756
  12 F :   -0.162578
  13 F :   -0.168230
  14 F :   -0.167610
  15 F :   -0.168992
  16 F :   -0.169305
  17 F :   -0.173083
  18 F :   -0.174638
  19 F :   -0.186579
  20 F :   -0.181002
  21 F :   -0.208162
  22 F :   -0.204552
  23 O :   -0.488466
  24 O :   -0.501785
  25 O :   -0.726172
  26 H :    0.327594
  27 H :    0.350853
  28 H :    0.347240
  29 O :   -0.724719
  30 H :    0.327822
Sum of atomic charges:   -1.0000000

LOEWDIN ATOMIC CHARGES
----------------------
   0 C :   -0.663479
   1 C :   -0.463557
   2 C :   -0.456584
   3 C :   -0.454320
   4 C :   -0.453351
   5 C :   -0.454130
   6 C :   -0.441245
   7 C :   -0.648857
   8 F :    0.224823
   9 F :    0.226904
  10 F :    0.225958
  11 F :    0.223620
  12 F :    0.224931
  13 F :    0.224786
  14 F :    0.224511
  15 F :    0.223902
  16 F :    0.222888
  17 F :    0.219202
  18 F :    0.218140
  19 F :    0.208080
  20 F :    0.214843
  21 F :    0.171466
  22 F :    0.179695
  23 O :   -0.025311
  24 O :   -0.030253
  25 O :   -0.367202
  26 H :    0.156741
  27 H :    0.139279
  28 H :    0.139290
  29 O :   -0.367193
  30 H :    0.156423

  Mayer bond orders larger than 0.100000
B(  0-C ,  1-C ) :   0.9701 B(  0-C ,  8-F ) :   1.1430 B(  0-C ,  9-F ) :   1.1559
B(  0-C , 10-F ) :   1.1490 B(  1-C ,  2-C ) :   0.9263 B(  1-C , 11-F ) :   1.0873
B(  1-C , 12-F ) :   1.0974 B(  2-C ,  3-C ) :   0.9346 B(  2-C , 13-F ) :   1.0814
B(  2-C , 14-F ) :   1.0882 B(  3-C ,  4-C ) :   0.9381 B(  3-C , 15-F ) :   1.0814
B(  3-C , 16-F ) :   1.0801 B(  4-C ,  5-C ) :   0.9285 B(  4-C , 17-F ) :   1.0785
B(  4-C , 18-F ) :   1.0727 B(  5-C ,  6-C ) :   0.9078 B(  5-C , 19-F ) :   1.0655
B(  5-C , 20-F ) :   1.0773 B(  6-C ,  7-C ) :   0.8973 B(  6-C , 21-F ) :   1.0438
B(  6-C , 22-F ) :   1.0445 B(  7-C , 23-O ) :   1.7576 B(  7-C , 24-O ) :   1.7346
B( 23-O , 28-H ) :   0.1097 B( 24-O , 27-H ) :   0.1049 B( 25-O , 26-H ) :   0.9015
B( 25-O , 27-H ) :   0.8281 B( 28-H , 29-O ) :   0.8272 B( 29-O , 30-H ) :   0.9014

Dispersion correction           -0.050224839
FINAL SINGLE POINT ENERGY     -2106.085300738690

DIPOLE MOMENT
-------------

Method             : SCF
Type of density    : Electron Density
Multiplicity       :   1
Irrep              :   0
Energy             : -2106.0350758998988567 Eh
Relativity type    :
Basis              : AO
                                X                 Y                 Z
Electronic contribution:      1.848545682      38.544360693       6.374619073
Nuclear contribution   :     -1.669787785     -31.684000562      -4.405487073
                        -----------------------------------------
Total Dipole Moment    :      0.178757898       6.860360131       1.969132000
                        -----------------------------------------
Magnitude (a.u.)       :      7.139606176
Magnitude (Debye)      :     18.147436698

Rotational constants in cm-1:             0.013012             0.003226             0.002937
Rotational constants in MHz :           390.100358            96.726807            88.048555

                             ****ORCA TERMINATED NORMALLY****
TOTAL RUN TIME: 0 days 0 hours 49 minutes 28 seconds 109 msec
