                         Program Version 6.0.1  -  RELEASE   -
|  1> !B3LYP def2-TZVP freq d3 TightSCF SlowConv defgrid2
|  2>
|  3> %pal
|  4> nprocs 20
|  5> end
|  6>
|  7> %scf
|  8> MaxIter 1500
|  9> end
| 10>
| 11> %maxcore 8000
| 12>
| 13> !CPCM
| 14> %cpcm smd true
| 15> SMDsolvent "ACETONITRILE"
| 16> end
| 17>
| 18> * xyz -1 2
| 19> 6        4.357790000      0.290678000     -1.028845000
| 20> 8        4.848566000     -0.579775000     -1.758980000
| 21> 8        4.432193000      1.529860000     -1.051406000
| 22> 6        3.463152000     -0.251705000      0.159134000
| 23> 6        1.971750000      0.159984000      0.021447000
| 24> 6        0.941689000     -0.670247000      0.858566000
| 25> 6       -0.422021000     -0.042202000      0.923874000
| 26> 6       -1.632174000     -0.548814000      0.206970000
| 27> 6       -2.820003000      0.464436000      0.211023000
| 28> 6       -4.017118000      0.093002000     -0.723152000
| 29> 9        3.505790000     -1.613190000      0.253548000
| 30> 9        3.923808000      0.230058000      1.355722000
| 31> 9        1.819268000      1.455975000      0.384273000
| 32> 9        1.607988000      0.043681000     -1.282014000
| 33> 9        0.824641000     -1.907739000      0.319228000
| 34> 9        1.428394000     -0.792993000      2.123743000
| 35> 9       -0.589609000      0.895881000      1.838931000
| 36> 9       -2.081696000     -1.714490000      0.764221000
| 37> 9       -1.307738000     -0.832018000     -1.080941000
| 38> 9       -2.365226000      1.671230000     -0.186063000
| 39> 9       -3.301647000      0.567845000      1.465980000
| 40> 9       -4.471464000     -1.133693000     -0.463309000
| 41> 9       -5.006020000      0.966673000     -0.512011000
| 42> 9       -3.659833000      0.161605000     -2.005487000
| 43> *
| 44>
| 45>                          ****END OF INPUT****

CARTESIAN COORDINATES (ANGSTROEM)
---------------------------------
  C      4.357790    0.290678   -1.028845
  O      4.848566   -0.579775   -1.758980
  O      4.432193    1.529860   -1.051406
  C      3.463152   -0.251705    0.159134
  C      1.971750    0.159984    0.021447
  C      0.941689   -0.670247    0.858566
  C     -0.422021   -0.042202    0.923874
  C     -1.632174   -0.548814    0.206970
  C     -2.820003    0.464436    0.211023
  C     -4.017118    0.093002   -0.723152
  F      3.505790   -1.613190    0.253548
  F      3.923808    0.230058    1.355722
  F      1.819268    1.455975    0.384273
  F      1.607988    0.043681   -1.282014
  F      0.824641   -1.907739    0.319228
  F      1.428394   -0.792993    2.123743
  F     -0.589609    0.895881    1.838931
  F     -2.081696   -1.714490    0.764221
  F     -1.307738   -0.832018   -1.080941
  F     -2.365226    1.671230   -0.186063
  F     -3.301647    0.567845    1.465980
  F     -4.471464   -1.133693   -0.463309
  F     -5.006020    0.966673   -0.512011
  F     -3.659833    0.161605   -2.005487

 Total Charge           Charge          ....   -1
 Multiplicity           Mult            ....    2
 Number of Electrons    NEL             ....  191
 Basis Dimension        Dim             ....  744

ORBITAL ENERGIES
----------------
                 SPIN UP ORBITALS
  NO   OCC          E(Eh)            E(eV)
   0   1.0000     -24.753857      -673.5867
   1   1.0000     -24.743062      -673.2930
   2   1.0000     -24.742284      -673.2718
   3   1.0000     -24.741401      -673.2478
   4   1.0000     -24.741038      -673.2379
   5   1.0000     -24.740422      -673.2211
   6   1.0000     -24.734393      -673.0571
   7   1.0000     -24.728894      -672.9074
   8   1.0000     -24.728702      -672.9022
   9   1.0000     -24.726261      -672.8358
  10   1.0000     -24.721489      -672.7059
  11   1.0000     -24.720570      -672.6809
  12   1.0000     -24.696992      -672.0393
  13   1.0000     -24.696574      -672.0279
  14   1.0000     -19.061382      -518.6866
  15   1.0000     -19.059361      -518.6316
  16   1.0000     -10.459577      -284.6196
  17   1.0000     -10.403724      -283.0997
  18   1.0000     -10.402598      -283.0691
  19   1.0000     -10.393068      -282.8098
  20   1.0000     -10.376523      -282.3595
  21   1.0000     -10.341979      -281.4196
  22   1.0000     -10.322651      -280.8936
  23   1.0000     -10.253767      -279.0192
  24   1.0000      -1.351659       -36.7805
  25   1.0000      -1.316214       -35.8160
  26   1.0000      -1.306778       -35.5592
  27   1.0000      -1.297752       -35.3136
  28   1.0000      -1.292021       -35.1577
  29   1.0000      -1.285208       -34.9723
  30   1.0000      -1.263609       -34.3845
  31   1.0000      -1.260946       -34.3121
  32   1.0000      -1.258245       -34.2386
  33   1.0000      -1.251598       -34.0577
  34   1.0000      -1.241276       -33.7768
  35   1.0000      -1.239331       -33.7239
  36   1.0000      -1.229751       -33.4632
  37   1.0000      -1.203288       -32.7431
  38   1.0000      -1.024312       -27.8730
  39   1.0000      -0.941865       -25.6295
  40   1.0000      -0.854167       -23.2431
  41   1.0000      -0.823384       -22.4054
  42   1.0000      -0.793313       -21.5871
  43   1.0000      -0.755970       -20.5710
  44   1.0000      -0.710880       -19.3440
  45   1.0000      -0.685124       -18.6432
  46   1.0000      -0.662035       -18.0149
  47   1.0000      -0.645785       -17.5727
  48   1.0000      -0.639027       -17.3888
  49   1.0000      -0.635027       -17.2800
  50   1.0000      -0.618994       -16.8437
  51   1.0000      -0.614759       -16.7284
  52   1.0000      -0.612520       -16.6675
  53   1.0000      -0.607068       -16.5192
  54   1.0000      -0.603573       -16.4241
  55   1.0000      -0.592742       -16.1293
  56   1.0000      -0.583827       -15.8867
  57   1.0000      -0.575918       -15.6715
  58   1.0000      -0.572324       -15.5737
  59   1.0000      -0.565009       -15.3747
  60   1.0000      -0.548336       -14.9210
  61   1.0000      -0.531892       -14.4735
  62   1.0000      -0.514036       -13.9876
  63   1.0000      -0.505554       -13.7568
  64   1.0000      -0.501879       -13.6568
  65   1.0000      -0.495511       -13.4835
  66   1.0000      -0.487080       -13.2541
  67   1.0000      -0.486345       -13.2341
  68   1.0000      -0.482617       -13.1327
  69   1.0000      -0.476260       -12.9597
  70   1.0000      -0.475730       -12.9453
  71   1.0000      -0.472124       -12.8472
  72   1.0000      -0.464841       -12.6490
  73   1.0000      -0.462070       -12.5736
  74   1.0000      -0.460311       -12.5257
  75   1.0000      -0.456281       -12.4160
  76   1.0000      -0.454669       -12.3722
  77   1.0000      -0.449651       -12.2356
  78   1.0000      -0.445899       -12.1335
  79   1.0000      -0.442256       -12.0344
  80   1.0000      -0.440772       -11.9940
  81   1.0000      -0.438668       -11.9368
  82   1.0000      -0.433707       -11.8018
  83   1.0000      -0.430718       -11.7204
  84   1.0000      -0.426652       -11.6098
  85   1.0000      -0.416931       -11.3453
  86   1.0000      -0.410723       -11.1764
  87   1.0000      -0.401571       -10.9273
  88   1.0000      -0.398814       -10.8523
  89   1.0000      -0.384564       -10.4645
  90   1.0000      -0.373172       -10.1545
  91   1.0000      -0.351066        -9.5530
  92   1.0000      -0.270667        -7.3652
  93   1.0000      -0.250336        -6.8120
  94   1.0000      -0.237802        -6.4709
  95   1.0000      -0.236446        -6.4340
  96   0.0000      -0.001668        -0.0454
  97   0.0000       0.023034         0.6268
  98   0.0000       0.036052         0.9810
  99   0.0000       0.054563         1.4847
 100   0.0000       0.066667         1.8141

                 SPIN DOWN ORBITALS
  NO   OCC          E(Eh)            E(eV)
   0   1.0000     -24.749334      -673.4636
   1   1.0000     -24.743059      -673.2929
   2   1.0000     -24.742284      -673.2718
   3   1.0000     -24.741401      -673.2477
   4   1.0000     -24.740969      -673.2360
   5   1.0000     -24.740362      -673.2195
   6   1.0000     -24.733693      -673.0380
   7   1.0000     -24.728394      -672.8938
   8   1.0000     -24.727217      -672.8618
   9   1.0000     -24.725497      -672.8150
  10   1.0000     -24.721462      -672.7052
  11   1.0000     -24.720530      -672.6798
  12   1.0000     -24.696977      -672.0389
  13   1.0000     -24.696576      -672.0280
  14   1.0000     -19.061284      -518.6839
  15   1.0000     -19.059339      -518.6310
  16   1.0000     -10.459585      -284.6198
  17   1.0000     -10.403685      -283.0987
  18   1.0000     -10.403254      -283.0869
  19   1.0000     -10.393894      -282.8322
  20   1.0000     -10.375949      -282.3439
  21   1.0000     -10.341871      -281.4166
  22   1.0000     -10.308154      -280.4991
  23   1.0000     -10.253741      -279.0185
  24   1.0000      -1.351622       -36.7795
  25   1.0000      -1.314783       -35.7771
  26   1.0000      -1.305199       -35.5163
  27   1.0000      -1.296121       -35.2693
  28   1.0000      -1.286553       -35.0089
  29   1.0000      -1.281701       -34.8769
  30   1.0000      -1.263493       -34.3814
  31   1.0000      -1.260895       -34.3107
  32   1.0000      -1.258230       -34.2382
  33   1.0000      -1.251341       -34.0507
  34   1.0000      -1.240127       -33.7456
  35   1.0000      -1.236693       -33.6521
  36   1.0000      -1.229361       -33.4526
  37   1.0000      -1.203268       -32.7426
  38   1.0000      -1.024190       -27.8696
  39   1.0000      -0.941726       -25.6257
  40   1.0000      -0.842438       -22.9239
  41   1.0000      -0.819780       -22.3073
  42   1.0000      -0.787732       -21.4353
  43   1.0000      -0.753977       -20.5168
  44   1.0000      -0.707522       -19.2526
  45   1.0000      -0.682129       -18.5617
  46   1.0000      -0.658692       -17.9239
  47   1.0000      -0.645190       -17.5565
  48   1.0000      -0.637397       -17.3445
  49   1.0000      -0.634713       -17.2714
  50   1.0000      -0.617246       -16.7961
  51   1.0000      -0.611420       -16.6376
  52   1.0000      -0.609198       -16.5771
  53   1.0000      -0.605737       -16.4830
  54   1.0000      -0.602527       -16.3956
  55   1.0000      -0.591098       -16.0846
  56   1.0000      -0.580491       -15.7960
  57   1.0000      -0.573843       -15.6151
  58   1.0000      -0.570809       -15.5325
  59   1.0000      -0.563779       -15.3412
  60   1.0000      -0.548205       -14.9174
  61   1.0000      -0.513774       -13.9805
  62   1.0000      -0.505132       -13.7453
  63   1.0000      -0.503929       -13.7126
  64   1.0000      -0.501305       -13.6412
  65   1.0000      -0.494541       -13.4571
  66   1.0000      -0.485878       -13.2214
  67   1.0000      -0.484637       -13.1876
  68   1.0000      -0.481669       -13.1069
  69   1.0000      -0.474808       -12.9202
  70   1.0000      -0.473436       -12.8828
  71   1.0000      -0.470918       -12.8143
  72   1.0000      -0.463097       -12.6015
  73   1.0000      -0.461749       -12.5648
  74   1.0000      -0.459064       -12.4918
  75   1.0000      -0.453977       -12.3534
  76   1.0000      -0.452535       -12.3141
  77   1.0000      -0.449260       -12.2250
  78   1.0000      -0.444993       -12.1089
  79   1.0000      -0.441155       -12.0044
  80   1.0000      -0.439172       -11.9505
  81   1.0000      -0.437721       -11.9110
  82   1.0000      -0.433245       -11.7892
  83   1.0000      -0.430315       -11.7095
  84   1.0000      -0.425279       -11.5724
  85   1.0000      -0.415885       -11.3168
  86   1.0000      -0.410630       -11.1738
  87   1.0000      -0.400440       -10.8965
  88   1.0000      -0.398403       -10.8411
  89   1.0000      -0.384438       -10.4611
  90   1.0000      -0.371369       -10.1055
  91   1.0000      -0.348623        -9.4865
  92   1.0000      -0.250260        -6.8099
  93   1.0000      -0.238328        -6.4852
  94   1.0000      -0.236563        -6.4372
  95   0.0000      -0.124018        -3.3747
  96   0.0000       0.001179         0.0321
  97   0.0000       0.024928         0.6783
  98   0.0000       0.040156         1.0927
  99   0.0000       0.055947         1.5224

MULLIKEN ATOMIC CHARGES AND SPIN POPULATIONS
--------------------------------------------
   0 C :    0.145965    0.001296
   1 O :   -0.472572    0.003477
   2 O :   -0.487370    0.000816
   3 C :    0.335069    0.003754
   4 C :    0.314460    0.024127
   5 C :    0.375100   -0.020144
   6 C :    0.135948    0.830742
   7 C :    0.336928    0.008290
   8 C :    0.332523   -0.005466
   9 C :    0.476445    0.000033
  10 F :   -0.212207   -0.000031
  11 F :   -0.219997    0.000365
  12 F :   -0.190281    0.000719
  13 F :   -0.197557    0.000624
  14 F :   -0.180180    0.005625
  15 F :   -0.182901    0.014387
  16 F :   -0.145704    0.086663
  17 F :   -0.183899    0.030565
  18 F :   -0.178459    0.011966
  19 F :   -0.169289    0.000994
  20 F :   -0.167756    0.001146
  21 F :   -0.155202    0.000040
  22 F :   -0.155041   -0.000000
  23 F :   -0.154023    0.000012
Sum of atomic charges         :   -1.0000000

LOEWDIN ATOMIC CHARGES AND SPIN POPULATIONS
-------------------------------------------
   0 C :   -0.693086    0.001499
   1 O :   -0.050212    0.003114
   2 O :   -0.057612    0.000741
   3 C :   -0.436374    0.004941
   4 C :   -0.446998    0.019969
   5 C :   -0.471075    0.057274
   6 C :   -0.162545    0.657325
   7 C :   -0.468232    0.063907
   8 C :   -0.455071    0.001263
   9 C :   -0.662536   -0.000088
  10 F :    0.163260   -0.000047
  11 F :    0.152703    0.000399
  12 F :    0.205165    0.001202
  13 F :    0.200074    0.000863
  14 F :    0.208760    0.006168
  15 F :    0.199142    0.015356
  16 F :    0.262493    0.112139
  17 F :    0.188630    0.035400
  18 F :    0.208465    0.015483
  19 F :    0.221538    0.001503
  20 F :    0.220641    0.001462
  21 F :    0.225580    0.000087
  22 F :    0.221745    0.000023
  23 F :    0.225546    0.000019

  Mayer bond orders larger than 0.100000
B(  0-C ,  1-O ) :   1.8950 B(  0-C ,  2-O ) :   1.8723 B(  0-C ,  3-C ) :   0.8494
B(  3-C ,  4-C ) :   0.9171 B(  3-C , 10-F ) :   1.0444 B(  3-C , 11-F ) :   1.0301
B(  4-C ,  5-C ) :   0.9170 B(  4-C , 12-F ) :   1.0592 B(  4-C , 13-F ) :   1.0539
B(  5-C ,  6-C ) :   1.0309 B(  5-C , 14-F ) :   1.0782 B(  5-C , 15-F ) :   1.0707
B(  6-C ,  7-C ) :   1.0255 B(  6-C , 16-F ) :   1.1146 B(  7-C ,  8-C ) :   0.9200
B(  7-C , 17-F ) :   1.0591 B(  7-C , 18-F ) :   1.0676 B(  8-C ,  9-C ) :   0.9683
B(  8-C , 19-F ) :   1.0862 B(  8-C , 20-F ) :   1.0837 B(  9-C , 21-F ) :   1.1507
B(  9-C , 22-F ) :   1.1447 B(  9-C , 23-F ) :   1.1562

Dispersion correction           -0.041936634
FINAL SINGLE POINT ENERGY     -1853.285006017419

DIPOLE MOMENT
-------------

Method             : SCF
Type of density    : Electron Density
Multiplicity       :   2
Irrep              :   0
Energy             : -1853.2430693835597140 Eh
Relativity type    :
Basis              : AO
                                X                 Y                 Z
Electronic contribution:    -16.686402518      -1.507871213       4.327017749
Nuclear contribution   :      8.667915195       0.919650847      -2.170601198
                        -----------------------------------------
Total Dipole Moment    :     -8.018487323      -0.588220365       2.156416551
                        -----------------------------------------
Magnitude (a.u.)       :      8.324198129
Magnitude (Debye)      :     21.158430156

VIBRATIONAL FREQUENCIES
-----------------------

Scaling factor for frequencies =  1.000000000  (already applied!)

     0:       0.00 cm**-1
     1:       0.00 cm**-1
     2:       0.00 cm**-1
     3:       0.00 cm**-1
     4:       0.00 cm**-1
     5:       0.00 cm**-1
     6:      13.80 cm**-1
     7:      26.10 cm**-1
     8:      28.33 cm**-1
     9:      37.36 cm**-1
    10:      48.49 cm**-1
    11:      55.70 cm**-1
    12:      73.95 cm**-1
    13:      87.68 cm**-1
    14:     106.05 cm**-1
    15:     124.74 cm**-1
    16:     158.55 cm**-1
    17:     178.92 cm**-1
    18:     190.46 cm**-1
    19:     202.39 cm**-1
    20:     217.49 cm**-1
    21:     229.85 cm**-1
    22:     234.49 cm**-1
    23:     245.29 cm**-1
    24:     260.72 cm**-1
    25:     283.62 cm**-1
    26:     287.99 cm**-1
    27:     308.85 cm**-1
    28:     328.78 cm**-1
    29:     343.70 cm**-1
    30:     355.77 cm**-1
    31:     364.68 cm**-1
    32:     366.54 cm**-1
    33:     369.48 cm**-1
    34:     392.18 cm**-1
    35:     446.96 cm**-1
    36:     464.92 cm**-1
    37:     503.63 cm**-1
    38:     523.78 cm**-1
    39:     534.23 cm**-1
    40:     538.80 cm**-1
    41:     568.77 cm**-1
    42:     588.67 cm**-1
    43:     600.47 cm**-1
    44:     624.35 cm**-1
    45:     665.07 cm**-1
    46:     688.29 cm**-1
    47:     698.22 cm**-1
    48:     723.89 cm**-1
    49:     774.50 cm**-1
    50:     792.38 cm**-1
    51:     867.51 cm**-1
    52:    1000.24 cm**-1
    53:    1036.83 cm**-1
    54:    1067.36 cm**-1
    55:    1082.36 cm**-1
    56:    1104.84 cm**-1
    57:    1107.50 cm**-1
    58:    1113.92 cm**-1
    59:    1130.11 cm**-1
    60:    1143.41 cm**-1
    61:    1149.83 cm**-1
    62:    1160.79 cm**-1
    63:    1181.56 cm**-1
    64:    1213.39 cm**-1
    65:    1230.89 cm**-1
    66:    1244.43 cm**-1
    67:    1297.75 cm**-1
    68:    1334.46 cm**-1
    69:    1362.44 cm**-1
    70:    1402.72 cm**-1
    71:    1729.13 cm**-1

IR SPECTRUM
-----------

 Mode   freq       eps      Int      T**2         TX        TY        TZ
       cm**-1   L/(mol*cm) km/mol    a.u.
----------------------------------------------------------------------------
  6:     13.80   0.000451    2.28  0.010195  ( 0.071085  0.003720  0.071611)
  7:     26.10   0.000584    2.95  0.006979  (-0.039593  0.072196 -0.014112)
  8:     28.33   0.000036    0.18  0.000400  ( 0.012764 -0.004570  0.014690)
  9:     37.36   0.000577    2.92  0.004821  (-0.035279 -0.032355 -0.050297)
 10:     48.49   0.000098    0.49  0.000629  ( 0.013352  0.016124  0.013825)
 11:     55.70   0.000098    0.49  0.000546  (-0.000700 -0.023025 -0.003979)
 12:     73.95   0.000328    1.66  0.001385  (-0.027847  0.019337 -0.015336)
 13:     87.68   0.000183    0.92  0.000650  ( 0.012796 -0.021500 -0.004857)
 14:    106.05   0.000487    2.46  0.001433  ( 0.031225  0.005743  0.020613)
 15:    124.74   0.000279    1.41  0.000698  ( 0.020268 -0.014572  0.008648)
 16:    158.55   0.001249    6.31  0.002458  ( 0.048423  0.008475 -0.006440)
 17:    178.92   0.000461    2.33  0.000805  (-0.007979 -0.002565  0.027100)
 18:    190.46   0.000196    0.99  0.000320  (-0.003464  0.005275 -0.016751)
 19:    202.39   0.001495    7.56  0.002305  (-0.019028  0.001246  0.044062)
 20:    217.49   0.001024    5.18  0.001470  (-0.019747 -0.032826  0.001486)
 21:    229.85   0.000170    0.86  0.000231  (-0.006782 -0.001543 -0.013496)
 22:    234.49   0.000136    0.69  0.000181  ( 0.004983  0.004149  0.011799)
 23:    245.29   0.000027    0.13  0.000034  ( 0.005107  0.000471  0.002758)
 24:    260.72   0.000163    0.83  0.000196  (-0.000606 -0.002107 -0.013810)
 25:    283.62   0.001313    6.64  0.001445  ( 0.036055 -0.006495  0.010146)
 26:    287.99   0.000440    2.22  0.000477  ( 0.014021 -0.016365 -0.003546)
 27:    308.85   0.000073    0.37  0.000073  ( 0.005016 -0.006909  0.000626)
 28:    328.78   0.000342    1.73  0.000324  ( 0.017328 -0.002894  0.003948)
 29:    343.70   0.000213    1.08  0.000193  (-0.012534 -0.000222 -0.006025)
 30:    355.77   0.000320    1.62  0.000281  (-0.013737  0.001701  0.009462)
 31:    364.68   0.000326    1.65  0.000279  (-0.016043 -0.001954 -0.004188)
 32:    366.54   0.000391    1.98  0.000333  (-0.017999 -0.002952 -0.000255)
 33:    369.48   0.000415    2.10  0.000351  ( 0.018558  0.001625  0.001959)
 34:    392.18   0.000293    1.48  0.000233  (-0.011397 -0.008433 -0.005669)
 35:    446.96   0.001196    6.05  0.000835  (-0.023554  0.008430 -0.014469)
 36:    464.92   0.000703    3.55  0.000472  (-0.016883  0.013578  0.001573)
 37:    503.63   0.001415    7.15  0.000877  (-0.012543  0.026526 -0.003964)
 38:    523.78   0.011285   57.03  0.006724  ( 0.079941 -0.018233 -0.000758)
 39:    534.23   0.004203   21.24  0.002455  ( 0.044918 -0.002797  0.020725)
 40:    538.80   0.002192   11.08  0.001270  (-0.034212 -0.007833 -0.006149)
 41:    568.77   0.002715   13.72  0.001490  ( 0.007917  0.019788 -0.032180)
 42:    588.67   0.005652   28.56  0.002996  ( 0.045139  0.023578  0.020072)
 43:    600.47   0.000260    1.32  0.000135  (-0.009699  0.003809 -0.005167)
 44:    624.35   0.004404   22.26  0.002201  (-0.040931 -0.021850 -0.006968)
 45:    665.07   0.034841  176.07  0.016348  ( 0.126910  0.005356 -0.014596)
 46:    688.29   0.012021   60.75  0.005450  (-0.072796 -0.003320 -0.011825)
 47:    698.22   0.003028   15.30  0.001354  ( 0.024484  0.006848 -0.026592)
 48:    723.89   0.009319   47.09  0.004017  ( 0.037243 -0.020386  0.047061)
 49:    774.50   0.001866    9.43  0.000752  ( 0.024131 -0.012814  0.002318)
 50:    792.38   0.021070  106.48  0.008298  ( 0.039403  0.028420 -0.077057)
 51:    867.51   0.007835   39.59  0.002818  ( 0.029706 -0.016016  0.040981)
 52:   1000.24   0.018495   93.46  0.005770  ( 0.039965 -0.041149  0.049796)
 53:   1036.83   0.030603  154.66  0.009211  (-0.064236 -0.067693  0.022416)
 54:   1067.36   0.052519  265.41  0.015355  ( 0.033946  0.090663 -0.077348)
 55:   1082.36   0.053835  272.06  0.015522  ( 0.023557  0.077462  0.094691)
 56:   1104.84   0.001341    6.78  0.000379  ( 0.011254 -0.010358 -0.012037)
 57:   1107.50   0.028331  143.17  0.007983  ( 0.020599 -0.076784  0.040776)
 58:   1113.92   0.083532  422.14  0.023401  ( 0.057830  0.035763  0.137033)
 59:   1130.11   0.069697  352.22  0.019246  (-0.003869  0.119435  0.070470)
 60:   1143.41   0.031477  159.07  0.008591  ( 0.021943  0.067782  0.059286)
 61:   1149.83   0.082109  414.95  0.022284  (-0.056247 -0.080108  0.112709)
 62:   1160.79   0.114461  578.44  0.030771  ( 0.073303 -0.145047 -0.066026)
 63:   1181.56   0.066857  337.87  0.017658  (-0.051040 -0.071034  0.100034)
 64:   1213.39   0.001520    7.68  0.000391  (-0.005031 -0.004900 -0.018480)
 65:   1230.89   0.012957   65.48  0.003285  (-0.007515 -0.055653 -0.011458)
 66:   1244.43   0.005585   28.22  0.001401  ( 0.000450 -0.001908 -0.037373)
 67:   1297.75   0.023001  116.24  0.005531  ( 0.052549  0.003039  0.052540)
 68:   1334.46   0.012105   61.18  0.002831  (-0.028278  0.012645 -0.043259)
 69:   1362.44   0.067584  341.54  0.015480  (-0.102334 -0.022529  0.067082)
 70:   1402.72   0.003523   17.81  0.000784  (-0.007132  0.021343  0.016658)
 71:   1729.13   0.161019  813.72  0.029060  (-0.031755  0.158545  0.053989)

--------------------------
THERMOCHEMISTRY AT 298.15K
--------------------------

Temperature         ...   298.15 K
Pressure            ...     1.00 atm
Total Mass          ...   394.06 AMU
Quasi RRHO          ...     True
Cut-Off Frequency   ...     1.00 cm^-1

Throughout the following assumptions are being made:
  (1) The electronic state is orbitally nondegenerate
      but the spin degeneracy is treated
  (2) There are no thermally accessible electronically excited states
  (3) Hindered rotations indicated by low frequency modes are not
      treated as such but are treated as vibrations and this may
      cause some error
  (4) All equations used are the standard statistical mechanics
      equations for an ideal gas
  (5) All vibrations are strictly harmonic

freq.      13.80  E(vib)   ...       0.57
freq.      26.10  E(vib)   ...       0.56
freq.      28.33  E(vib)   ...       0.55
freq.      37.36  E(vib)   ...       0.54
freq.      48.49  E(vib)   ...       0.53
freq.      55.70  E(vib)   ...       0.52
freq.      73.95  E(vib)   ...       0.49
freq.      87.68  E(vib)   ...       0.48
freq.     106.05  E(vib)   ...       0.45
freq.     124.74  E(vib)   ...       0.43
freq.     158.55  E(vib)   ...       0.39
freq.     178.92  E(vib)   ...       0.37
freq.     190.46  E(vib)   ...       0.36
freq.     202.39  E(vib)   ...       0.35
freq.     217.49  E(vib)   ...       0.33
freq.     229.85  E(vib)   ...       0.32
freq.     234.49  E(vib)   ...       0.32
freq.     245.29  E(vib)   ...       0.31
freq.     260.72  E(vib)   ...       0.30
freq.     283.62  E(vib)   ...       0.28
freq.     287.99  E(vib)   ...       0.27
freq.     308.85  E(vib)   ...       0.26
freq.     328.78  E(vib)   ...       0.24
freq.     343.70  E(vib)   ...       0.23
freq.     355.77  E(vib)   ...       0.22
freq.     364.68  E(vib)   ...       0.22
freq.     366.54  E(vib)   ...       0.22
freq.     369.48  E(vib)   ...       0.21
freq.     392.18  E(vib)   ...       0.20
freq.     446.96  E(vib)   ...       0.17
freq.     464.92  E(vib)   ...       0.16
freq.     503.63  E(vib)   ...       0.14
freq.     523.78  E(vib)   ...       0.13
freq.     534.23  E(vib)   ...       0.13
freq.     538.80  E(vib)   ...       0.12
freq.     568.77  E(vib)   ...       0.11
freq.     588.67  E(vib)   ...       0.10
freq.     600.47  E(vib)   ...       0.10
freq.     624.35  E(vib)   ...       0.09
freq.     665.07  E(vib)   ...       0.08
freq.     688.29  E(vib)   ...       0.07
freq.     698.22  E(vib)   ...       0.07
freq.     723.89  E(vib)   ...       0.06
freq.     774.50  E(vib)   ...       0.05
freq.     792.38  E(vib)   ...       0.05
freq.     867.51  E(vib)   ...       0.04
freq.    1000.24  E(vib)   ...       0.02
freq.    1036.83  E(vib)   ...       0.02
freq.    1067.36  E(vib)   ...       0.02
freq.    1082.36  E(vib)   ...       0.02
freq.    1104.84  E(vib)   ...       0.02
freq.    1107.50  E(vib)   ...       0.02
freq.    1113.92  E(vib)   ...       0.01
freq.    1130.11  E(vib)   ...       0.01
freq.    1143.41  E(vib)   ...       0.01
freq.    1149.83  E(vib)   ...       0.01
freq.    1160.79  E(vib)   ...       0.01
freq.    1181.56  E(vib)   ...       0.01
freq.    1213.39  E(vib)   ...       0.01
freq.    1230.89  E(vib)   ...       0.01
freq.    1244.43  E(vib)   ...       0.01
freq.    1297.75  E(vib)   ...       0.01
freq.    1334.46  E(vib)   ...       0.01
freq.    1362.44  E(vib)   ...       0.01
freq.    1402.72  E(vib)   ...       0.00
freq.    1729.13  E(vib)   ...       0.00

------------
INNER ENERGY
------------

The inner energy is: U= E(el) + E(ZPE) + E(vib) + E(rot) + E(trans)
    E(el)   - is the total energy from the electronic structure calculation
              = E(kin-el) + E(nuc-el) + E(el-el) + E(nuc-nuc)
    E(ZPE)  - the the zero temperature vibrational energy from the frequency calculation
    E(vib)  - the the finite temperature correction to E(ZPE) due to population
              of excited vibrational states
    E(rot)  - is the rotational thermal energy
    E(trans)- is the translational thermal energy

Summary of contributions to the inner energy U:
Electronic energy                ...  -1853.28500602 Eh
Zero point energy                ...      0.09253988 Eh      58.07 kcal/mol
Thermal vibrational correction   ...      0.01984295 Eh      12.45 kcal/mol
Thermal rotational correction    ...      0.00141627 Eh       0.89 kcal/mol
Thermal translational correction ...      0.00141627 Eh       0.89 kcal/mol
-----------------------------------------------------------------------
Total thermal energy                  -1853.16979064 Eh

Summary of corrections to the electronic energy:
(perhaps to be used in another calculation)
Total thermal correction                  0.02267550 Eh      14.23 kcal/mol
Non-thermal (ZPE) correction              0.09253988 Eh      58.07 kcal/mol
-----------------------------------------------------------------------
Total correction                          0.11521537 Eh      72.30 kcal/mol

--------
ENTHALPY
--------

The enthalpy is H = U + kB*T
                kB is Boltzmann's constant
Total thermal energy              ...  -1853.16979064 Eh
Thermal Enthalpy correction       ...      0.00094421 Eh       0.59 kcal/mol
-----------------------------------------------------------------------
Total Enthalpy                    ...  -1853.16884643 Eh

Note: Only C1 symmetry has been detected, increase convergence thresholds
      if your molecule has a higher symmetry. Symmetry factor of 1.0 is
      used for the rotational entropy correction.

Note: Rotational entropy computed according to Herzberg
Infrared and Raman Spectra, Chapter V,1, Van Nostrand Reinhold, 1945
Point Group:  C1, Symmetry Number:   1
Rotational constants in cm-1:     0.018771     0.004130     0.004036

Vibrational entropy computed according to the QRRHO of S. Grimme
Chem.Eur.J. 2012 18 9955 using a reference frequency of 100.0 cm-1

-------
ENTROPY
-------

The entropy contributions are T*S = T*(S(el)+S(vib)+S(rot)+S(trans))
     S(el)   - electronic entropy
     S(vib)  - vibrational entropy
     S(rot)  - rotational entropy
     S(trans)- translational entropy
The entropies will be listed as multiplied by the temperature to get
units of energy

Electronic entropy                ...      0.00065446 Eh      0.41 kcal/mol
Vibrational entropy               ...      0.03613636 Eh     22.68 kcal/mol
Rotational entropy                ...      0.01658149 Eh     10.41 kcal/mol
Translational entropy             ...      0.02081341 Eh     13.06 kcal/mol
-----------------------------------------------------------------------

                             ****ORCA TERMINATED NORMALLY****
TOTAL RUN TIME: 0 days 0 hours 19 minutes 55 seconds 115 msec
