                         Program Version 6.0.1  -  RELEASE   -
|  1> !B3LYP def2-TZVP freq d3 TightSCF SlowConv defgrid2
|  2>
|  3> %pal
|  4> nprocs 20
|  5> end
|  6>
|  7> %scf
|  8> MaxIter 1500
|  9> end
| 10>
| 11> %maxcore 8000
| 12>
| 13> !CPCM
| 14> %cpcm smd true
| 15> SMDsolvent "ACETONITRILE"
| 16> end
| 17>
| 18> * xyz -1 2
| 19> 6        4.874683000      0.060088000     -0.249909000
| 20> 8        5.251119000     -0.220937000     -1.422788000
| 21> 8        5.229338000      1.308589000      0.319938000
| 22> 1        5.679260000      1.781887000     -0.396983000
| 23> 6        3.585020000     -0.430231000      0.312171000
| 24> 6        2.249923000      0.224047000     -0.197733000
| 25> 6        0.891316000     -0.461624000      0.176534000
| 26> 6       -0.381951000      0.430294000     -0.025031000
| 27> 6       -1.730211000     -0.373211000     -0.043983000
| 28> 6       -2.994787000      0.517715000      0.196557000
| 29> 6       -4.349278000     -0.164765000     -0.182434000
| 30> 9        3.449506000     -1.777749000      0.033509000
| 31> 9        3.554115000     -0.281553000      1.689018000
| 32> 9        2.206340000      1.503986000      0.263679000
| 33> 9        2.300331000      0.270848000     -1.556032000
| 34> 9        0.748579000     -1.575487000     -0.581171000
| 35> 9        0.921184000     -0.832266000      1.477874000
| 36> 9       -0.436506000      1.335312000      0.976204000
| 37> 9       -0.280105000      1.092915000     -1.197568000
| 38> 9       -1.700476000     -1.318486000      0.918524000
| 39> 9       -1.852499000     -0.982273000     -1.241386000
| 40> 9       -2.895307000      1.649954000     -0.529781000
| 41> 9       -3.058069000      0.841736000      1.501819000
| 42> 9       -4.450315000     -1.365873000      0.392047000
| 43> 9       -5.351121000      0.603966000      0.252496000
| 44> 9       -4.465119000     -0.303143000     -1.502696000
| 45> *
| 46>
| 47>                          ****END OF INPUT****

CARTESIAN COORDINATES (ANGSTROEM)
---------------------------------
  C      4.874683    0.060088   -0.249909
  O      5.251119   -0.220937   -1.422788
  O      5.229338    1.308589    0.319938
  H      5.679260    1.781887   -0.396983
  C      3.585020   -0.430231    0.312171
  C      2.249923    0.224047   -0.197733
  C      0.891316   -0.461624    0.176534
  C     -0.381951    0.430294   -0.025031
  C     -1.730211   -0.373211   -0.043983
  C     -2.994787    0.517715    0.196557
  C     -4.349278   -0.164765   -0.182434
  F      3.449506   -1.777749    0.033509
  F      3.554115   -0.281553    1.689018
  F      2.206340    1.503986    0.263679
  F      2.300331    0.270848   -1.556032
  F      0.748579   -1.575487   -0.581171
  F      0.921184   -0.832266    1.477874
  F     -0.436506    1.335312    0.976204
  F     -0.280105    1.092915   -1.197568
  F     -1.700476   -1.318486    0.918524
  F     -1.852499   -0.982273   -1.241386
  F     -2.895307    1.649954   -0.529781
  F     -3.058069    0.841736    1.501819
  F     -4.450315   -1.365873    0.392047
  F     -5.351121    0.603966    0.252496
  F     -4.465119   -0.303143   -1.502696

 Total Charge           Charge          ....   -1
 Multiplicity           Mult            ....    2
 Number of Electrons    NEL             ....  201
 Basis Dimension        Dim             ....  781

ORBITAL ENERGIES
----------------
                 SPIN UP ORBITALS
  NO   OCC          E(Eh)            E(eV)
   0   1.0000     -24.743911      -673.3160
   1   1.0000     -24.742983      -673.2908
   2   1.0000     -24.742069      -673.2659
   3   1.0000     -24.741917      -673.2618
   4   1.0000     -24.740538      -673.2243
   5   1.0000     -24.740127      -673.2131
   6   1.0000     -24.739653      -673.2002
   7   1.0000     -24.735399      -673.0844
   8   1.0000     -24.734484      -673.0595
   9   1.0000     -24.726911      -672.8534
  10   1.0000     -24.725057      -672.8030
  11   1.0000     -24.712342      -672.4570
  12   1.0000     -24.709727      -672.3859
  13   1.0000     -24.686326      -671.7491
  14   1.0000     -24.683689      -671.6773
  15   1.0000     -19.113990      -520.1181
  16   1.0000     -19.051973      -518.4305
  17   1.0000     -10.459960      -284.6300
  18   1.0000     -10.405026      -283.1352
  19   1.0000     -10.404204      -283.1128
  20   1.0000     -10.398158      -282.9483
  21   1.0000     -10.386791      -282.6389
  22   1.0000     -10.366220      -282.0792
  23   1.0000     -10.336619      -281.2737
  24   1.0000     -10.224978      -278.2358
  25   1.0000      -1.352436       -36.8016
  26   1.0000      -1.325218       -36.0610
  27   1.0000      -1.309556       -35.6348
  28   1.0000      -1.303523       -35.4707
  29   1.0000      -1.294779       -35.2327
  30   1.0000      -1.278070       -34.7781
  31   1.0000      -1.265236       -34.4288
  32   1.0000      -1.259223       -34.2652
  33   1.0000      -1.256754       -34.1980
  34   1.0000      -1.249717       -34.0065
  35   1.0000      -1.245956       -33.9042
  36   1.0000      -1.243877       -33.8476
  37   1.0000      -1.236873       -33.6570
  38   1.0000      -1.220809       -33.2199
  39   1.0000      -1.191299       -32.4169
  40   1.0000      -1.029218       -28.0064
  41   1.0000      -0.942938       -25.6586
  42   1.0000      -0.842424       -22.9235
  43   1.0000      -0.817622       -22.2486
  44   1.0000      -0.787779       -21.4366
  45   1.0000      -0.754926       -20.5426
  46   1.0000      -0.717999       -19.5377
  47   1.0000      -0.689638       -18.7660
  48   1.0000      -0.668758       -18.1978
  49   1.0000      -0.647452       -17.6181
  50   1.0000      -0.643026       -17.4976
  51   1.0000      -0.636445       -17.3185
  52   1.0000      -0.625212       -17.0129
  53   1.0000      -0.620255       -16.8780
  54   1.0000      -0.619380       -16.8542
  55   1.0000      -0.609532       -16.5862
  56   1.0000      -0.604775       -16.4568
  57   1.0000      -0.597097       -16.2478
  58   1.0000      -0.590311       -16.0632
  59   1.0000      -0.584009       -15.8917
  60   1.0000      -0.579551       -15.7704
  61   1.0000      -0.568605       -15.4725
  62   1.0000      -0.564914       -15.3721
  63   1.0000      -0.539999       -14.6941
  64   1.0000      -0.514776       -14.0078
  65   1.0000      -0.509936       -13.8761
  66   1.0000      -0.505173       -13.7464
  67   1.0000      -0.500429       -13.6174
  68   1.0000      -0.498427       -13.5629
  69   1.0000      -0.497922       -13.5492
  70   1.0000      -0.490684       -13.3522
  71   1.0000      -0.486322       -13.2335
  72   1.0000      -0.483529       -13.1575
  73   1.0000      -0.477533       -12.9943
  74   1.0000      -0.474733       -12.9181
  75   1.0000      -0.471050       -12.8179
  76   1.0000      -0.462992       -12.5987
  77   1.0000      -0.462028       -12.5724
  78   1.0000      -0.458303       -12.4711
  79   1.0000      -0.451490       -12.2857
  80   1.0000      -0.450355       -12.2548
  81   1.0000      -0.447877       -12.1873
  82   1.0000      -0.444405       -12.0929
  83   1.0000      -0.441094       -12.0028
  84   1.0000      -0.440492       -11.9864
  85   1.0000      -0.439617       -11.9626
  86   1.0000      -0.437045       -11.8926
  87   1.0000      -0.429902       -11.6982
  88   1.0000      -0.425496       -11.5783
  89   1.0000      -0.420007       -11.4290
  90   1.0000      -0.415902       -11.3173
  91   1.0000      -0.408814       -11.1244
  92   1.0000      -0.401631       -10.9289
  93   1.0000      -0.394679       -10.7398
  94   1.0000      -0.386477       -10.5166
  95   1.0000      -0.367597       -10.0028
  96   1.0000      -0.348606        -9.4860
  97   1.0000      -0.329833        -8.9752
  98   1.0000      -0.285490        -7.7686
  99   1.0000      -0.237185        -6.4541
 100   1.0000      -0.102016        -2.7760
 101   0.0000      -0.002635        -0.0717
 102   0.0000       0.011742         0.3195
 103   0.0000       0.044396         1.2081
 104   0.0000       0.056441         1.5358
 105   0.0000       0.074355         2.0233

                 SPIN DOWN ORBITALS
  NO   OCC          E(Eh)            E(eV)
   0   1.0000     -24.743910      -673.3160
   1   1.0000     -24.742982      -673.2908
   2   1.0000     -24.742053      -673.2655
   3   1.0000     -24.741906      -673.2615
   4   1.0000     -24.740534      -673.2242
   5   1.0000     -24.740118      -673.2128
   6   1.0000     -24.739629      -673.1995
   7   1.0000     -24.735381      -673.0839
   8   1.0000     -24.734438      -673.0583
   9   1.0000     -24.726873      -672.8524
  10   1.0000     -24.724980      -672.8009
  11   1.0000     -24.712279      -672.4553
  12   1.0000     -24.709633      -672.3833
  13   1.0000     -24.685802      -671.7348
  14   1.0000     -24.683089      -671.6610
  15   1.0000     -19.111907      -520.0614
  16   1.0000     -19.044494      -518.2270
  17   1.0000     -10.459936      -284.6293
  18   1.0000     -10.404977      -283.1338
  19   1.0000     -10.404082      -283.1095
  20   1.0000     -10.397910      -282.9415
  21   1.0000     -10.386176      -282.6222
  22   1.0000     -10.364970      -282.0452
  23   1.0000     -10.335708      -281.2489
  24   1.0000     -10.217242      -278.0253
  25   1.0000      -1.352414       -36.8010
  26   1.0000      -1.325101       -36.0578
  27   1.0000      -1.309433       -35.6315
  28   1.0000      -1.303441       -35.4684
  29   1.0000      -1.294561       -35.2268
  30   1.0000      -1.277713       -34.7683
  31   1.0000      -1.265219       -34.4284
  32   1.0000      -1.259198       -34.2645
  33   1.0000      -1.256710       -34.1968
  34   1.0000      -1.249668       -34.0052
  35   1.0000      -1.245810       -33.9002
  36   1.0000      -1.242510       -33.8104
  37   1.0000      -1.236693       -33.6521
  38   1.0000      -1.220587       -33.2139
  39   1.0000      -1.190037       -32.3826
  40   1.0000      -1.021596       -27.7990
  41   1.0000      -0.931021       -25.3344
  42   1.0000      -0.841793       -22.9064
  43   1.0000      -0.816051       -22.2059
  44   1.0000      -0.785148       -21.3650
  45   1.0000      -0.751453       -20.4481
  46   1.0000      -0.714995       -19.4560
  47   1.0000      -0.688071       -18.7234
  48   1.0000      -0.666637       -18.1401
  49   1.0000      -0.647332       -17.6148
  50   1.0000      -0.642666       -17.4878
  51   1.0000      -0.636407       -17.3175
  52   1.0000      -0.624088       -16.9823
  53   1.0000      -0.619756       -16.8644
  54   1.0000      -0.618137       -16.8204
  55   1.0000      -0.606622       -16.5070
  56   1.0000      -0.604591       -16.4518
  57   1.0000      -0.595260       -16.1978
  58   1.0000      -0.590071       -16.0567
  59   1.0000      -0.580636       -15.7999
  60   1.0000      -0.579125       -15.7588
  61   1.0000      -0.567522       -15.4431
  62   1.0000      -0.562223       -15.2989
  63   1.0000      -0.538586       -14.6557
  64   1.0000      -0.514718       -14.0062
  65   1.0000      -0.509892       -13.8749
  66   1.0000      -0.505117       -13.7449
  67   1.0000      -0.500025       -13.6064
  68   1.0000      -0.498202       -13.5568
  69   1.0000      -0.496063       -13.4986
  70   1.0000      -0.489951       -13.3323
  71   1.0000      -0.485752       -13.2180
  72   1.0000      -0.483406       -13.1541
  73   1.0000      -0.477405       -12.9908
  74   1.0000      -0.474512       -12.9121
  75   1.0000      -0.470794       -12.8109
  76   1.0000      -0.462782       -12.5929
  77   1.0000      -0.461912       -12.5693
  78   1.0000      -0.457369       -12.4456
  79   1.0000      -0.451466       -12.2850
  80   1.0000      -0.450233       -12.2515
  81   1.0000      -0.447347       -12.1729
  82   1.0000      -0.444269       -12.0892
  83   1.0000      -0.441015       -12.0006
  84   1.0000      -0.440010       -11.9733
  85   1.0000      -0.436809       -11.8862
  86   1.0000      -0.433677       -11.8009
  87   1.0000      -0.429322       -11.6824
  88   1.0000      -0.424945       -11.5633
  89   1.0000      -0.418696       -11.3933
  90   1.0000      -0.414751       -11.2859
  91   1.0000      -0.404810       -11.0154
  92   1.0000      -0.399774       -10.8784
  93   1.0000      -0.393062       -10.6958
  94   1.0000      -0.370891       -10.0925
  95   1.0000      -0.362375        -9.8607
  96   1.0000      -0.338056        -9.1990
  97   1.0000      -0.324028        -8.8173
  98   1.0000      -0.255087        -6.9413
  99   1.0000      -0.230950        -6.2845
 100   0.0000      -0.015744        -0.4284
 101   0.0000       0.009231         0.2512
 102   0.0000       0.018639         0.5072
 103   0.0000       0.047822         1.3013
 104   0.0000       0.059806         1.6274

MULLIKEN ATOMIC CHARGES AND SPIN POPULATIONS
--------------------------------------------
   0 C :   -0.048498    0.544415
   1 O :   -0.539351    0.245536
   2 O :   -0.484906    0.033138
   3 H :    0.305233    0.015882
   4 C :    0.458035    0.011184
   5 C :    0.272611    0.096299
   6 C :    0.327520    0.020911
   7 C :    0.328204    0.013585
   8 C :    0.312243    0.004787
   9 C :    0.323448    0.002288
  10 C :    0.475365    0.000903
  11 F :   -0.231076    0.002205
  12 F :   -0.233213    0.003406
  13 F :   -0.204158    0.000990
  14 F :   -0.201421    0.001974
  15 F :   -0.186243    0.000252
  16 F :   -0.183803    0.000562
  17 F :   -0.176145    0.000218
  18 F :   -0.175963    0.000710
  19 F :   -0.171697    0.000248
  20 F :   -0.171223    0.000133
  21 F :   -0.167377    0.000099
  22 F :   -0.164357    0.000055
  23 F :   -0.155888   -0.000000
  24 F :   -0.154023    0.000214
  25 F :   -0.153317    0.000004
Sum of atomic charges         :   -1.0000000

LOEWDIN ATOMIC CHARGES AND SPIN POPULATIONS
-------------------------------------------
   0 C :   -0.617348    0.406945
   1 O :   -0.118052    0.237719
   2 O :   -0.040060    0.061454
   3 H :    0.169037    0.012537
   4 C :   -0.485104    0.137701
   5 C :   -0.450853    0.059153
   6 C :   -0.458512    0.031798
   7 C :   -0.455830    0.013850
   8 C :   -0.457013    0.006562
   9 C :   -0.463526    0.002672
  10 C :   -0.663343    0.000910
  11 F :    0.138001    0.009424
  12 F :    0.129633    0.011054
  13 F :    0.186421    0.001359
  14 F :    0.188307    0.001790
  15 F :    0.203873    0.001078
  16 F :    0.204805    0.001447
  17 F :    0.215607    0.000465
  18 F :    0.215319    0.000723
  19 F :    0.220519    0.000431
  20 F :    0.220559    0.000263
  21 F :    0.221220    0.000175
  22 F :    0.222544    0.000096
  23 F :    0.224208    0.000028
  24 F :    0.223312    0.000339
  25 F :    0.226274    0.000027

  Mayer bond orders larger than 0.100000
B(  0-C ,  1-O ) :   1.8193 B(  0-C ,  2-O ) :   1.0699 B(  0-C ,  4-C ) :   0.9397
B(  2-O ,  3-H ) :   0.8675 B(  4-C ,  5-C ) :   0.8177 B(  4-C , 11-F ) :   1.0079
B(  4-C , 12-F ) :   1.0042 B(  5-C ,  6-C ) :   0.8946 B(  5-C , 13-F ) :   1.0475
B(  5-C , 14-F ) :   1.0591 B(  6-C ,  7-C ) :   0.9316 B(  6-C , 15-F ) :   1.0607
B(  6-C , 16-F ) :   1.0727 B(  7-C ,  8-C ) :   0.9286 B(  7-C , 17-F ) :   1.0712
B(  7-C , 18-F ) :   1.0767 B(  8-C ,  9-C ) :   0.9255 B(  8-C , 19-F ) :   1.0799
B(  8-C , 20-F ) :   1.0840 B(  9-C , 10-C ) :   0.9696 B(  9-C , 21-F ) :   1.0863
B(  9-C , 22-F ) :   1.0953 B( 10-C , 23-F ) :   1.1445 B( 10-C , 24-F ) :   1.1460
B( 10-C , 25-F ) :   1.1558

Dispersion correction           -0.044867992
FINAL SINGLE POINT ENERGY     -1953.719285973507

DIPOLE MOMENT
-------------

Method             : SCF
Type of density    : Electron Density
Multiplicity       :   2
Irrep              :   0
Energy             : -1953.6744179817917484 Eh
Relativity type    :
Basis              : AO
                                X                 Y                 Z
Electronic contribution:    -22.987837816      -1.934251803       1.719326248
Nuclear contribution   :     15.471612336       2.592454700      -1.256218570
                        -----------------------------------------
Total Dipole Moment    :     -7.516225480       0.658202897       0.463107678
                        -----------------------------------------
Magnitude (a.u.)       :      7.559189457
Magnitude (Debye)      :     19.213932643

VIBRATIONAL FREQUENCIES
-----------------------

Scaling factor for frequencies =  1.000000000  (already applied!)

     0:       0.00 cm**-1
     1:       0.00 cm**-1
     2:       0.00 cm**-1
     3:       0.00 cm**-1
     4:       0.00 cm**-1
     5:       0.00 cm**-1
     6:      25.01 cm**-1
     7:      29.98 cm**-1
     8:      36.43 cm**-1
     9:      41.94 cm**-1
    10:      55.50 cm**-1
    11:      61.93 cm**-1
    12:      67.69 cm**-1
    13:      81.86 cm**-1
    14:     108.82 cm**-1
    15:     127.81 cm**-1
    16:     152.87 cm**-1
    17:     190.10 cm**-1
    18:     194.65 cm**-1
    19:     202.75 cm**-1
    20:     210.74 cm**-1
    21:     230.46 cm**-1
    22:     243.99 cm**-1
    23:     246.54 cm**-1
    24:     255.69 cm**-1
    25:     260.33 cm**-1
    26:     264.02 cm**-1
    27:     285.50 cm**-1
    28:     305.33 cm**-1
    29:     311.82 cm**-1
    30:     332.92 cm**-1
    31:     345.00 cm**-1
    32:     352.28 cm**-1
    33:     358.44 cm**-1
    34:     362.27 cm**-1
    35:     368.81 cm**-1
    36:     374.18 cm**-1
    37:     412.09 cm**-1
    38:     451.56 cm**-1
    39:     465.05 cm**-1
    40:     512.03 cm**-1
    41:     523.58 cm**-1
    42:     524.80 cm**-1
    43:     551.64 cm**-1
    44:     558.73 cm**-1
    45:     567.24 cm**-1
    46:     589.00 cm**-1
    47:     602.42 cm**-1
    48:     620.44 cm**-1
    49:     640.97 cm**-1
    50:     676.31 cm**-1
    51:     689.16 cm**-1
    52:     715.80 cm**-1
    53:     745.56 cm**-1
    54:     812.77 cm**-1
    55:     915.11 cm**-1
    56:     983.31 cm**-1
    57:    1010.80 cm**-1
    58:    1036.79 cm**-1
    59:    1096.10 cm**-1
    60:    1102.73 cm**-1
    61:    1105.63 cm**-1
    62:    1116.63 cm**-1
    63:    1124.06 cm**-1
    64:    1134.41 cm**-1
    65:    1139.09 cm**-1
    66:    1146.98 cm**-1
    67:    1158.57 cm**-1
    68:    1162.22 cm**-1
    69:    1174.23 cm**-1
    70:    1184.46 cm**-1
    71:    1212.67 cm**-1
    72:    1238.17 cm**-1
    73:    1258.67 cm**-1
    74:    1273.90 cm**-1
    75:    1330.32 cm**-1
    76:    1542.01 cm**-1
    77:    3700.00 cm**-1

IR SPECTRUM
-----------

 Mode   freq       eps      Int      T**2         TX        TY        TZ
       cm**-1   L/(mol*cm) km/mol    a.u.
----------------------------------------------------------------------------
  6:     25.01   0.000216    1.09  0.002693  (-0.028077  0.020003 -0.038788)
  7:     29.98   0.000171    0.86  0.001775  (-0.008844  0.003289 -0.041062)
  8:     36.43   0.000177    0.89  0.001515  (-0.000920 -0.038749 -0.003495)
  9:     41.94   0.000286    1.45  0.002129  ( 0.029455  0.032964  0.013210)
 10:     55.50   0.000052    0.26  0.000292  ( 0.002616 -0.013479  0.010156)
 11:     61.93   0.000015    0.08  0.000078  (-0.002100  0.005499  0.006567)
 12:     67.69   0.000422    2.13  0.001944  ( 0.039056  0.019513  0.006157)
 13:     81.86   0.000707    3.57  0.002695  ( 0.036515 -0.016243  0.033133)
 14:    108.82   0.001364    6.89  0.003910  ( 0.059701  0.004375 -0.018082)
 15:    127.81   0.000699    3.53  0.001707  (-0.040167 -0.002683 -0.009298)
 16:    152.87   0.001694    8.56  0.003458  (-0.057737 -0.009970 -0.005021)
 17:    190.10   0.002638   13.33  0.004330  ( 0.008711  0.000195 -0.065226)
 18:    194.65   0.002916   14.74  0.004675  (-0.067802  0.003639 -0.008063)
 19:    202.75   0.000114    0.58  0.000175  ( 0.011620  0.002579  0.005788)
 20:    210.74   0.000483    2.44  0.000715  ( 0.004711 -0.024366  0.009935)
 21:    230.46   0.000030    0.15  0.000040  ( 0.005096  0.001937 -0.003212)
 22:    243.99   0.000332    1.68  0.000425  ( 0.018650 -0.000168  0.008775)
 23:    246.54   0.002914   14.73  0.003689  ( 0.052050 -0.017777  0.025754)
 24:    255.69   0.031116  157.25  0.037976  (-0.185982  0.038919 -0.043269)
 25:    260.33   0.000854    4.31  0.001023  ( 0.031125 -0.007303  0.001028)
 26:    264.02   0.005755   29.08  0.006802  (-0.079333  0.017119 -0.014684)
 27:    285.50   0.001187    6.00  0.001297  ( 0.033340 -0.013325 -0.002894)
 28:    305.33   0.000203    1.03  0.000207  (-0.009122 -0.001137 -0.011082)
 29:    311.82   0.000072    0.37  0.000072  ( 0.001838  0.008308 -0.000161)
 30:    332.92   0.000033    0.17  0.000031  (-0.001482  0.002260  0.004874)
 31:    345.00   0.006768   34.20  0.006122  ( 0.068911  0.036424 -0.006826)
 32:    352.28   0.004475   22.62  0.003964  ( 0.056823  0.024105 -0.012426)
 33:    358.44   0.000517    2.61  0.000450  (-0.007729 -0.006352 -0.018699)
 34:    362.27   0.000960    4.85  0.000827  (-0.027558 -0.006440  0.005142)
 35:    368.81   0.001435    7.25  0.001214  (-0.027763 -0.021049 -0.000236)
 36:    374.18   0.000447    2.26  0.000373  (-0.009729 -0.016492 -0.002423)
 37:    412.09   0.000208    1.05  0.000158  ( 0.008528 -0.009071 -0.001652)
 38:    451.56   0.011580   58.52  0.008003  ( 0.080725  0.037675 -0.008163)
 39:    465.05   0.000715    3.62  0.000480  (-0.014467 -0.002896  0.016197)
 40:    512.03   0.001480    7.48  0.000902  ( 0.021729  0.020356 -0.003953)
 41:    523.58   0.004737   23.94  0.002823  ( 0.051013  0.013626 -0.005936)
 42:    524.80   0.006233   31.50  0.003706  (-0.039035  0.046430  0.005183)
 43:    551.64   0.001879    9.49  0.001063  (-0.027035 -0.017341  0.005581)
 44:    558.73   0.004617   23.33  0.002579  ( 0.048182 -0.014342  0.007169)
 45:    567.24   0.023961  121.09  0.013182  (-0.109709 -0.032937 -0.007802)
 46:    589.00   0.001827    9.23  0.000968  (-0.025375 -0.007787 -0.016228)
 47:    602.42   0.001096    5.54  0.000568  ( 0.021031 -0.011081 -0.001573)
 48:    620.44   0.009385   47.43  0.004720  ( 0.067155  0.012124 -0.007979)
 49:    640.97   0.032172  162.59  0.015664  (-0.124225 -0.015159  0.001438)
 50:    676.31   0.017931   90.62  0.008274  ( 0.089683 -0.010678  0.010809)
 51:    689.16   0.021015  106.20  0.009516  (-0.097336  0.001604  0.006263)
 52:    715.80   0.000926    4.68  0.000404  ( 0.018914 -0.006698  0.001116)
 53:    745.56   0.002598   13.13  0.001087  (-0.032952 -0.000250  0.001240)
 54:    812.77   0.032754  165.53  0.012576  ( 0.104149  0.037102  0.018773)
 55:    915.11   0.067278  340.00  0.022943  ( 0.146283  0.032612  0.021926)
 56:    983.31   0.084234  425.69  0.026733  ( 0.038461  0.157308  0.022529)
 57:   1010.80   0.035171  177.74  0.010858  ( 0.004241 -0.017455 -0.102643)
 58:   1036.79   0.008551   43.21  0.002574  (-0.026718 -0.039827  0.016547)
 59:   1096.10   0.041144  207.92  0.011714  (-0.019174 -0.051281 -0.093361)
 60:   1102.73   0.014100   71.26  0.003990  (-0.023941  0.033866 -0.047646)
 61:   1105.63   0.013350   67.47  0.003768  ( 0.049123 -0.036045  0.007474)
 62:   1116.63   0.011935   60.32  0.003336  (-0.024264 -0.008475  0.051720)
 63:   1124.06   0.073446  371.17  0.020390  ( 0.016456  0.138682 -0.029779)
 64:   1134.41   0.121129  612.14  0.033321  (-0.031635 -0.128951 -0.125269)
 65:   1139.09   0.031474  159.06  0.008623  ( 0.004273 -0.091876  0.012771)
 66:   1146.98   0.090257  456.12  0.024557  ( 0.001448  0.028225 -0.154136)
 67:   1158.57   0.053372  269.72  0.014376  ( 0.049071 -0.100097  0.044140)
 68:   1162.22   0.085770  433.45  0.023030  ( 0.019760 -0.017516 -0.149441)
 69:   1174.23   0.013459   68.02  0.003577  (-0.011902 -0.036056  0.046208)
 70:   1184.46   0.053692  271.34  0.014146  ( 0.015085  0.034291 -0.112883)
 71:   1212.67   0.027931  141.15  0.007188  (-0.047293  0.052234  0.047146)
 72:   1238.17   0.000207    1.05  0.000052  ( 0.004820 -0.005327 -0.000817)
 73:   1258.67   0.020031  101.23  0.004966  ( 0.037633 -0.013354 -0.058066)
 74:   1273.90   0.009188   46.43  0.002251  ( 0.029179  0.005270 -0.037036)
 75:   1330.32   0.089370  451.64  0.020964  ( 0.143840 -0.004221 -0.016015)
 76:   1542.01   0.116074  586.59  0.023490  (-0.112545  0.049691  0.091405)
 77:   3700.00   0.015305   77.34  0.001291  (-0.024525 -0.018402  0.018728)

--------------------------
THERMOCHEMISTRY AT 298.15K
--------------------------

Temperature         ...   298.15 K
Pressure            ...     1.00 atm
Total Mass          ...   414.06 AMU
Quasi RRHO          ...     True
Cut-Off Frequency   ...     1.00 cm^-1

Throughout the following assumptions are being made:
  (1) The electronic state is orbitally nondegenerate
      but the spin degeneracy is treated
  (2) There are no thermally accessible electronically excited states
  (3) Hindered rotations indicated by low frequency modes are not
      treated as such but are treated as vibrations and this may
      cause some error
  (4) All equations used are the standard statistical mechanics
      equations for an ideal gas
  (5) All vibrations are strictly harmonic

freq.      25.01  E(vib)   ...       0.56
freq.      29.98  E(vib)   ...       0.55
freq.      36.43  E(vib)   ...       0.54
freq.      41.94  E(vib)   ...       0.53
freq.      55.50  E(vib)   ...       0.52
freq.      61.93  E(vib)   ...       0.51
freq.      67.69  E(vib)   ...       0.50
freq.      81.86  E(vib)   ...       0.48
freq.     108.82  E(vib)   ...       0.45
freq.     127.81  E(vib)   ...       0.43
freq.     152.87  E(vib)   ...       0.40
freq.     190.10  E(vib)   ...       0.36
freq.     194.65  E(vib)   ...       0.36
freq.     202.75  E(vib)   ...       0.35
freq.     210.74  E(vib)   ...       0.34
freq.     230.46  E(vib)   ...       0.32
freq.     243.99  E(vib)   ...       0.31
freq.     246.54  E(vib)   ...       0.31
freq.     255.69  E(vib)   ...       0.30
freq.     260.33  E(vib)   ...       0.30
freq.     264.02  E(vib)   ...       0.29
freq.     285.50  E(vib)   ...       0.28
freq.     305.33  E(vib)   ...       0.26
freq.     311.82  E(vib)   ...       0.25
freq.     332.92  E(vib)   ...       0.24
freq.     345.00  E(vib)   ...       0.23
freq.     352.28  E(vib)   ...       0.23
freq.     358.44  E(vib)   ...       0.22
freq.     362.27  E(vib)   ...       0.22
freq.     368.81  E(vib)   ...       0.21
freq.     374.18  E(vib)   ...       0.21
freq.     412.09  E(vib)   ...       0.19
freq.     451.56  E(vib)   ...       0.16
freq.     465.05  E(vib)   ...       0.16
freq.     512.03  E(vib)   ...       0.14
freq.     523.58  E(vib)   ...       0.13
freq.     524.80  E(vib)   ...       0.13
freq.     551.64  E(vib)   ...       0.12
freq.     558.73  E(vib)   ...       0.12
freq.     567.24  E(vib)   ...       0.11
freq.     589.00  E(vib)   ...       0.10
freq.     602.42  E(vib)   ...       0.10
freq.     620.44  E(vib)   ...       0.09
freq.     640.97  E(vib)   ...       0.09
freq.     676.31  E(vib)   ...       0.08
freq.     689.16  E(vib)   ...       0.07
freq.     715.80  E(vib)   ...       0.07
freq.     745.56  E(vib)   ...       0.06
freq.     812.77  E(vib)   ...       0.05
freq.     915.11  E(vib)   ...       0.03
freq.     983.31  E(vib)   ...       0.02
freq.    1010.80  E(vib)   ...       0.02
freq.    1036.79  E(vib)   ...       0.02
freq.    1096.10  E(vib)   ...       0.02
freq.    1102.73  E(vib)   ...       0.02
freq.    1105.63  E(vib)   ...       0.02
freq.    1116.63  E(vib)   ...       0.01
freq.    1124.06  E(vib)   ...       0.01
freq.    1134.41  E(vib)   ...       0.01
freq.    1139.09  E(vib)   ...       0.01
freq.    1146.98  E(vib)   ...       0.01
freq.    1158.57  E(vib)   ...       0.01
freq.    1162.22  E(vib)   ...       0.01
freq.    1174.23  E(vib)   ...       0.01
freq.    1184.46  E(vib)   ...       0.01
freq.    1212.67  E(vib)   ...       0.01
freq.    1238.17  E(vib)   ...       0.01
freq.    1258.67  E(vib)   ...       0.01
freq.    1273.90  E(vib)   ...       0.01
freq.    1330.32  E(vib)   ...       0.01
freq.    1542.01  E(vib)   ...       0.00
freq.    3700.00  E(vib)   ...       0.00

------------
INNER ENERGY
------------

The inner energy is: U= E(el) + E(ZPE) + E(vib) + E(rot) + E(trans)
    E(el)   - is the total energy from the electronic structure calculation
              = E(kin-el) + E(nuc-el) + E(el-el) + E(nuc-nuc)
    E(ZPE)  - the the zero temperature vibrational energy from the frequency calculation
    E(vib)  - the the finite temperature correction to E(ZPE) due to population
              of excited vibrational states
    E(rot)  - is the rotational thermal energy
    E(trans)- is the translational thermal energy

Summary of contributions to the inner energy U:
Electronic energy                ...  -1953.71928597 Eh
Zero point energy                ...      0.10546018 Eh      66.18 kcal/mol
Thermal vibrational correction   ...      0.02123682 Eh      13.33 kcal/mol
Thermal rotational correction    ...      0.00141627 Eh       0.89 kcal/mol
Thermal translational correction ...      0.00141627 Eh       0.89 kcal/mol
-----------------------------------------------------------------------
Total thermal energy                  -1953.58975643 Eh

Summary of corrections to the electronic energy:
(perhaps to be used in another calculation)
Total thermal correction                  0.02406937 Eh      15.10 kcal/mol
Non-thermal (ZPE) correction              0.10546018 Eh      66.18 kcal/mol
-----------------------------------------------------------------------
Total correction                          0.12952954 Eh      81.28 kcal/mol

--------
ENTHALPY
--------

The enthalpy is H = U + kB*T
                kB is Boltzmann's constant
Total thermal energy              ...  -1953.58975643 Eh
Thermal Enthalpy correction       ...      0.00094421 Eh       0.59 kcal/mol
-----------------------------------------------------------------------
Total Enthalpy                    ...  -1953.58881222 Eh

Note: Only C1 symmetry has been detected, increase convergence thresholds
      if your molecule has a higher symmetry. Symmetry factor of 1.0 is
      used for the rotational entropy correction.

Note: Rotational entropy computed according to Herzberg
Infrared and Raman Spectra, Chapter V,1, Van Nostrand Reinhold, 1945
Point Group:  C1, Symmetry Number:   1
Rotational constants in cm-1:     0.021052     0.003654     0.003611

Vibrational entropy computed according to the QRRHO of S. Grimme
Chem.Eur.J. 2012 18 9955 using a reference frequency of 100.0 cm-1

-------
ENTROPY
-------

The entropy contributions are T*S = T*(S(el)+S(vib)+S(rot)+S(trans))
     S(el)   - electronic entropy
     S(vib)  - vibrational entropy
     S(rot)  - rotational entropy
     S(trans)- translational entropy
The entropies will be listed as multiplied by the temperature to get
units of energy

                             ****ORCA TERMINATED NORMALLY****
TOTAL RUN TIME: 0 days 0 hours 23 minutes 33 seconds 192 msec
