                         Program Version 6.0.1  -  RELEASE   -
|  1> !TPSSh def2-TZVP opt d3 TightSCF SlowConv defgrid2
|  2>
|  3> %pal
|  4> nprocs 20
|  5> end
|  6>
|  7> %scf
|  8> MaxIter 1500
|  9> end
| 10>
| 11> %maxcore 8000
| 12>
| 13> !CPCM
| 14> %cpcm smd true
| 15> SMDsolvent "ACETONITRILE"
| 16> end
| 17>
| 18> * xyz 0 2
| 19> 6        4.790427000     -0.033865800     -0.529943200
| 20> 8        5.449345000     -1.206924000     -0.894594600
| 21> 8        4.978223000      1.323071000     -0.737377200
| 22> 6        3.506687600     -0.338741600      0.376153800
| 23> 6        2.222300000      0.400524800     -0.110681600
| 24> 6        0.900506800     -0.386389800      0.175703000
| 25> 6       -0.395261200      0.487294000      0.065549000
| 26> 6       -1.705693600     -0.364773800     -0.068373600
| 27> 6       -3.005136200      0.445344800      0.258164000
| 28> 6       -4.319880200     -0.214526000     -0.270540800
| 29> 9        3.211587400     -1.692050400      0.412735200
| 30> 9        3.741061800      0.055285800      1.689948800
| 31> 9        2.125696800      1.616867800      0.483236600
| 32> 9        2.314152400      0.589704000     -1.455769200
| 33> 9        0.794028800     -1.413561400     -0.700839000
| 34> 9        0.958350600     -0.884509000      1.435093400
| 35> 9       -0.498373400      1.260265600      1.173340200
| 36> 9       -0.299075000      1.289512600     -1.020910800
| 37> 9       -1.641790400     -1.418189000      0.779523800
| 38> 9       -1.792381400     -0.831391600     -1.336863600
| 39> 9       -2.918792200      1.679227200     -0.295171200
| 40> 9       -3.119771000      0.573779800      1.598579800
| 41> 9       -4.383115600     -1.504377600      0.089127600
| 42> 9       -5.365669800      0.430528600      0.260394200
| 43> 1        5.903122371     -2.014774547     -1.145719253
| 44> *
| 45>
| 46>                          ****END OF INPUT****
 Total Charge           Charge          ....    0
 Multiplicity           Mult            ....    2
 Number of Electrons    NEL             ....  191
Dispersion correction           -0.029763386
FINAL SINGLE POINT ENERGY     -1854.283836501409
Dispersion correction             ... done (  0.0 sec)
Dispersion correction           -0.029910162
FINAL SINGLE POINT ENERGY     -1854.333996175368
Dispersion correction             ... done (  0.0 sec)
Dispersion correction           -0.030004649
FINAL SINGLE POINT ENERGY     -1854.341113744876
Dispersion correction             ... done (  0.0 sec)
FINAL SINGLE POINT ENERGY     -1854.346796034879
FINAL SINGLE POINT ENERGY     -1854.347112851928
FINAL SINGLE POINT ENERGY     -1854.347629870658
FINAL SINGLE POINT ENERGY     -1854.348804017121
FINAL SINGLE POINT ENERGY     -1854.351501746340
FINAL SINGLE POINT ENERGY     -1854.357280899598
FINAL SINGLE POINT ENERGY     -1854.363628404318
FINAL SINGLE POINT ENERGY     -1854.389925287360
FINAL SINGLE POINT ENERGY     -1854.389945275773
FINAL SINGLE POINT ENERGY     -1854.389975922306
FINAL SINGLE POINT ENERGY     -1854.390041210713
FINAL SINGLE POINT ENERGY     -1854.390048980338
FINAL SINGLE POINT ENERGY     -1854.390079082357
FINAL SINGLE POINT ENERGY     -1854.390090361125
Dispersion correction             ... done (  0.0 sec)
Dispersion correction           -0.030018722
FINAL SINGLE POINT ENERGY     -1854.390095215899
Dispersion correction             ... done (  0.0 sec)
Dispersion correction           -0.030018218
FINAL SINGLE POINT ENERGY     -1854.390098276474
Dispersion correction             ... done (  0.0 sec)
                    ***********************HURRAY********************

CARTESIAN COORDINATES (ANGSTROEM)
---------------------------------
  C      4.781193   -0.041199   -0.267041
  O      5.137647   -0.854864   -1.251758
  O      5.331978    0.966341    0.083913
  C      3.485705   -0.540411    0.428739
  C      2.218133    0.138208   -0.182001
  C      0.863888   -0.528655    0.238853
  C     -0.379264    0.401677    0.021981
  C     -1.739760   -0.376000    0.020737
  C     -2.991335    0.532828    0.239131
  C     -4.277170   -0.161654   -0.172435
  F      3.357019   -1.884248    0.318130
  F      3.561060   -0.223109    1.738983
  F      2.215187    1.435742    0.195792
  F      2.321565    0.085515   -1.529764
  F      0.698393   -1.654195   -0.489470
  F      0.924455   -0.864511    1.544484
  F     -0.401349    1.324694    1.006440
  F     -0.247594    1.035233   -1.163440
  F     -1.714632   -1.310496    0.997181
  F     -1.876696   -0.999218   -1.170141
  F     -2.869340    1.654761   -0.508249
  F     -3.034980    0.910491    1.548333
  F     -4.511156   -1.323849    0.418692
  F     -5.343250    0.622400   -0.151770
  H      5.940856   -0.498149   -1.684553

 Multiplicity           Mult            ....    2
 Number of Electrons    NEL             ....  191
 Basis Dimension        Dim             ....  750

ORBITAL ENERGIES
----------------
                 SPIN UP ORBITALS
  NO   OCC          E(Eh)            E(eV)
   0   1.0000     -24.666561      -671.2113
   1   1.0000     -24.665693      -671.1876
   2   1.0000     -24.661690      -671.0787
   3   1.0000     -24.661531      -671.0744
   4   1.0000     -24.661202      -671.0654
   5   1.0000     -24.661032      -671.0608
   6   1.0000     -24.660978      -671.0593
   7   1.0000     -24.660726      -671.0525
   8   1.0000     -24.660071      -671.0346
   9   1.0000     -24.659635      -671.0228
  10   1.0000     -24.656240      -670.9304
  11   1.0000     -24.651864      -670.8113
  12   1.0000     -24.651366      -670.7978
  13   1.0000     -24.649666      -670.7515
  14   1.0000     -19.133706      -520.6546
  15   1.0000     -19.080179      -519.1981
  16   1.0000     -10.346771      -281.5500
  17   1.0000     -10.346350      -281.5385
  18   1.0000     -10.344435      -281.4864
  19   1.0000     -10.342419      -281.4315
  20   1.0000     -10.341123      -281.3963
  21   1.0000     -10.333096      -281.1778
  22   1.0000     -10.315853      -280.7086
  23   1.0000     -10.281325      -279.7691
  24   1.0000      -1.306116       -35.5412
  25   1.0000      -1.296742       -35.2861
  26   1.0000      -1.289563       -35.0908
  27   1.0000      -1.280210       -34.8363
  28   1.0000      -1.278587       -34.7921
  29   1.0000      -1.271555       -34.6008
  30   1.0000      -1.271240       -34.5922
  31   1.0000      -1.238126       -33.6911
  32   1.0000      -1.234190       -33.5840
  33   1.0000      -1.231088       -33.4996
  34   1.0000      -1.225333       -33.3430
  35   1.0000      -1.222748       -33.2727
  36   1.0000      -1.217113       -33.1193
  37   1.0000      -1.215602       -33.0782
  38   1.0000      -1.119620       -30.4664
  39   1.0000      -1.035834       -28.1865
  40   1.0000      -0.829356       -22.5679
  41   1.0000      -0.814165       -22.1546
  42   1.0000      -0.790094       -21.4995
  43   1.0000      -0.754985       -20.5442
  44   1.0000      -0.711085       -19.3496
  45   1.0000      -0.670344       -18.2410
  46   1.0000      -0.653936       -17.7945
  47   1.0000      -0.642832       -17.4923
  48   1.0000      -0.620658       -16.8890
  49   1.0000      -0.619000       -16.8439
  50   1.0000      -0.609055       -16.5732
  51   1.0000      -0.601772       -16.3751
  52   1.0000      -0.596925       -16.2432
  53   1.0000      -0.594985       -16.1904
  54   1.0000      -0.584450       -15.9037
  55   1.0000      -0.579593       -15.7715
  56   1.0000      -0.576217       -15.6797
  57   1.0000      -0.572778       -15.5861
  58   1.0000      -0.563007       -15.3202
  59   1.0000      -0.561684       -15.2842
  60   1.0000      -0.555099       -15.1050
  61   1.0000      -0.546522       -14.8716
  62   1.0000      -0.528877       -14.3915
  63   1.0000      -0.498151       -13.5554
  64   1.0000      -0.487724       -13.2717
  65   1.0000      -0.486097       -13.2274
  66   1.0000      -0.478664       -13.0251
  67   1.0000      -0.476851       -12.9758
  68   1.0000      -0.473043       -12.8721
  69   1.0000      -0.466627       -12.6976
  70   1.0000      -0.462610       -12.5883
  71   1.0000      -0.459422       -12.5015
  72   1.0000      -0.458671       -12.4811
  73   1.0000      -0.456233       -12.4147
  74   1.0000      -0.452122       -12.3029
  75   1.0000      -0.449815       -12.2401
  76   1.0000      -0.445289       -12.1169
  77   1.0000      -0.440489       -11.9863
  78   1.0000      -0.436240       -11.8707
  79   1.0000      -0.432843       -11.7783
  80   1.0000      -0.428136       -11.6502
  81   1.0000      -0.427553       -11.6343
  82   1.0000      -0.424396       -11.5484
  83   1.0000      -0.422547       -11.4981
  84   1.0000      -0.420055       -11.4303
  85   1.0000      -0.418597       -11.3906
  86   1.0000      -0.415463       -11.3053
  87   1.0000      -0.414215       -11.2714
  88   1.0000      -0.412163       -11.2155
  89   1.0000      -0.406295       -11.0558
  90   1.0000      -0.390960       -10.6386
  91   1.0000      -0.363734        -9.8977
  92   1.0000      -0.340573        -9.2675
  93   1.0000      -0.331674        -9.0253
  94   1.0000      -0.296305        -8.0629
  95   1.0000      -0.250705        -6.8220
  96   0.0000      -0.066688        -1.8147
  97   0.0000      -0.021068        -0.5733
  98   0.0000      -0.006563        -0.1786
  99   0.0000       0.018706         0.5090
 100   0.0000       0.030651         0.8341

                 SPIN DOWN ORBITALS
  NO   OCC          E(Eh)            E(eV)
   0   1.0000     -24.662846      -671.1102
   1   1.0000     -24.661940      -671.0855
   2   1.0000     -24.661692      -671.0787
   3   1.0000     -24.661525      -671.0742
   4   1.0000     -24.661200      -671.0654
   5   1.0000     -24.661009      -671.0602
   6   1.0000     -24.660978      -671.0593
   7   1.0000     -24.660523      -671.0469
   8   1.0000     -24.660071      -671.0346
   9   1.0000     -24.659635      -671.0228
  10   1.0000     -24.656265      -670.9311
  11   1.0000     -24.651366      -670.7978
  12   1.0000     -24.650336      -670.7697
  13   1.0000     -24.649666      -670.7515
  14   1.0000     -19.133706      -520.6546
  15   1.0000     -19.080179      -519.1981
  16   1.0000     -10.346789      -281.5505
  17   1.0000     -10.346358      -281.5387
  18   1.0000     -10.344524      -281.4888
  19   1.0000     -10.342421      -281.4316
  20   1.0000     -10.340269      -281.3730
  21   1.0000     -10.333096      -281.1778
  22   1.0000     -10.299557      -280.2652
  23   1.0000     -10.281325      -279.7691
  24   1.0000      -1.305827       -35.5333
  25   1.0000      -1.294360       -35.2213
  26   1.0000      -1.285716       -34.9861
  27   1.0000      -1.279142       -34.8072
  28   1.0000      -1.278548       -34.7911
  29   1.0000      -1.271355       -34.5953
  30   1.0000      -1.269351       -34.5408
  31   1.0000      -1.237999       -33.6877
  32   1.0000      -1.231259       -33.5043
  33   1.0000      -1.227611       -33.4050
  34   1.0000      -1.225065       -33.3357
  35   1.0000      -1.222719       -33.2719
  36   1.0000      -1.215603       -33.0782
  37   1.0000      -1.215395       -33.0726
  38   1.0000      -1.119620       -30.4664
  39   1.0000      -1.035834       -28.1865
  40   1.0000      -0.828631       -22.5482
  41   1.0000      -0.811771       -22.0894
  42   1.0000      -0.786468       -21.4009
  43   1.0000      -0.750645       -20.4261
  44   1.0000      -0.706630       -19.2284
  45   1.0000      -0.666844       -18.1457
  46   1.0000      -0.650332       -17.6964
  47   1.0000      -0.642700       -17.4888
  48   1.0000      -0.620043       -16.8722
  49   1.0000      -0.617448       -16.8016
  50   1.0000      -0.608662       -16.5625
  51   1.0000      -0.600314       -16.3354
  52   1.0000      -0.595440       -16.2028
  53   1.0000      -0.593204       -16.1419
  54   1.0000      -0.582234       -15.8434
  55   1.0000      -0.578413       -15.7394
  56   1.0000      -0.573082       -15.5944
  57   1.0000      -0.570294       -15.5185
  58   1.0000      -0.561182       -15.2705
  59   1.0000      -0.559711       -15.2305
  60   1.0000      -0.553537       -15.0625
  61   1.0000      -0.546398       -14.8683
  62   1.0000      -0.499562       -13.5938
  63   1.0000      -0.498144       -13.5552
  64   1.0000      -0.487017       -13.2524
  65   1.0000      -0.485929       -13.2228
  66   1.0000      -0.476956       -12.9786
  67   1.0000      -0.476464       -12.9653
  68   1.0000      -0.472217       -12.8497
  69   1.0000      -0.466051       -12.6819
  70   1.0000      -0.462073       -12.5736
  71   1.0000      -0.459152       -12.4942
  72   1.0000      -0.457615       -12.4523
  73   1.0000      -0.453789       -12.3482
  74   1.0000      -0.449551       -12.2329
  75   1.0000      -0.444993       -12.1089
  76   1.0000      -0.440451       -11.9853
  77   1.0000      -0.438665       -11.9367
  78   1.0000      -0.434220       -11.8157
  79   1.0000      -0.432713       -11.7747
  80   1.0000      -0.427514       -11.6333
  81   1.0000      -0.425591       -11.5809
  82   1.0000      -0.424292       -11.5456
  83   1.0000      -0.421520       -11.4701
  84   1.0000      -0.419910       -11.4263
  85   1.0000      -0.417460       -11.3597
  86   1.0000      -0.415007       -11.2929
  87   1.0000      -0.413674       -11.2566
  88   1.0000      -0.411530       -11.1983
  89   1.0000      -0.405526       -11.0349
  90   1.0000      -0.389502       -10.5989
  91   1.0000      -0.361817        -9.8455
  92   1.0000      -0.340529        -9.2663
  93   1.0000      -0.330233        -8.9861
  94   1.0000      -0.296261        -8.0617
  95   0.0000      -0.110951        -3.0191
  96   0.0000      -0.066587        -1.8119
  97   0.0000      -0.018982        -0.5165
  98   0.0000      -0.004527        -0.1232
  99   0.0000       0.021982         0.5981

MULLIKEN ATOMIC CHARGES AND SPIN POPULATIONS
--------------------------------------------
   0 C :    0.222995   -0.000008
   1 O :   -0.338006   -0.000001
   2 O :   -0.287681   -0.000005
   3 C :    0.376541   -0.000025
   4 C :    0.266540   -0.000085
   5 C :    0.290593   -0.000283
   6 C :    0.299457   -0.000652
   7 C :    0.281257   -0.007013
   8 C :    0.346385    0.012883
   9 C :    0.231729    0.835634
  10 F :   -0.158755    0.000001
  11 F :   -0.154483   -0.000001
  12 F :   -0.151808    0.000003
  13 F :   -0.153303   -0.000004
  14 F :   -0.148760    0.000011
  15 F :   -0.147153   -0.000010
  16 F :   -0.147248    0.000028
  17 F :   -0.148091   -0.000032
  18 F :   -0.150747    0.000638
  19 F :   -0.148577    0.002233
  20 F :   -0.152994   -0.001442
  21 F :   -0.158074    0.031424
  22 F :   -0.127415    0.062980
  23 F :   -0.125012    0.063724
  24 H :    0.382610   -0.000001
Sum of atomic charges         :   -0.0000000

LOEWDIN ATOMIC CHARGES AND SPIN POPULATIONS
-------------------------------------------
   0 C :   -0.491145   -0.000006
   1 O :    0.157080   -0.000001
   2 O :    0.136356   -0.000004
   3 C :   -0.452437   -0.000023
   4 C :   -0.455606   -0.000070
   5 C :   -0.458853   -0.000225
   6 C :   -0.458878   -0.000702
   7 C :   -0.456055   -0.000570
   8 C :   -0.490463    0.075791
   9 C :   -0.391171    0.709430
  10 F :    0.210842    0.000001
  11 F :    0.216619   -0.000002
  12 F :    0.226264    0.000005
  13 F :    0.223542   -0.000004
  14 F :    0.226353    0.000056
  15 F :    0.228216   -0.000008
  16 F :    0.228178    0.000163
  17 F :    0.227008   -0.000035
  18 F :    0.225034    0.000594
  19 F :    0.228255    0.004955
  20 F :    0.219177   -0.000085
  21 F :    0.199582    0.032814
  22 F :    0.233272    0.088585
  23 F :    0.234829    0.089339
  24 H :    0.234001   -0.000000

  Mayer bond orders larger than 0.100000
B(  0-C ,  1-O ) :   1.3149 B(  0-C ,  2-O ) :   2.0731 B(  0-C ,  3-C ) :   0.9057
B(  1-O , 24-H ) :   0.8194 B(  3-C ,  4-C ) :   0.9586 B(  3-C , 10-F ) :   1.1000
B(  3-C , 11-F ) :   1.1190 B(  4-C ,  5-C ) :   0.9503 B(  4-C , 12-F ) :   1.0950
B(  4-C , 13-F ) :   1.0893 B(  5-C ,  6-C ) :   0.9526 B(  5-C , 14-F ) :   1.0959
B(  5-C , 15-F ) :   1.0977 B(  6-C ,  7-C ) :   0.9499 B(  6-C , 16-F ) :   1.0989
B(  6-C , 17-F ) :   1.0957 B(  7-C ,  8-C ) :   0.9430 B(  7-C , 18-F ) :   1.0932
B(  7-C , 19-F ) :   1.0955 B(  8-C ,  9-C ) :   0.9743 B(  8-C , 20-F ) :   1.0910
B(  8-C , 21-F ) :   1.0835 B(  9-C , 22-F ) :   1.1503 B(  9-C , 23-F ) :   1.1515

Dispersion correction           -0.030017517
FINAL SINGLE POINT ENERGY     -1854.390098938897

DIPOLE MOMENT
-------------

Method             : SCF
Type of density    : Electron Density
Multiplicity       :   2
Irrep              :   0
Energy             : -1854.3600814220430948 Eh
Relativity type    :
Basis              : AO
                                X                 Y                 Z
Electronic contribution:    -13.583057221      -0.272335511       2.062707041
Nuclear contribution   :     14.133193068      -0.220746039      -3.059675279
                        -----------------------------------------
Total Dipole Moment    :      0.550135848      -0.493081550      -0.996968238
                        -----------------------------------------
Magnitude (a.u.)       :      1.240856371
Magnitude (Debye)      :      3.154006242

Rotational constants in cm-1:             0.022591             0.004059             0.003967
Rotational constants in MHz :           677.271251           121.683742           118.914485

                             ****ORCA TERMINATED NORMALLY****
TOTAL RUN TIME: 0 days 0 hours 59 minutes 19 seconds 15 msec
