                         Program Version 6.0.1  -  RELEASE   -
|  1> !TPSSh def2-TZVP freq d3 TightSCF SlowConv defgrid2
|  2>
|  3> %pal
|  4> nprocs 20
|  5> end
|  6>
|  7> %scf
|  8> MaxIter 1500
|  9> end
| 10>
| 11> %maxcore 8000
| 12>
| 13> !CPCM
| 14> %cpcm smd true
| 15> SMDsolvent "ACETONITRILE"
| 16> end
| 17>
| 18> * xyz 0 1
| 19> 6        4.787978000     -0.031642000     -0.227908000
| 20> 8        5.164428000     -0.826267000     -1.220449000
| 21> 8        5.327449000      0.972628000      0.148858000
| 22> 6        3.483805000     -0.547478000      0.438770000
| 23> 6        2.222374000      0.125538000     -0.190029000
| 24> 6        0.863120000     -0.539879000      0.217814000
| 25> 6       -0.375873000      0.390429000     -0.020701000
| 26> 6       -1.739712000     -0.383465000     -0.028415000
| 27> 6       -2.980012000      0.547426000      0.184294000
| 28> 6       -4.346227000     -0.096282000     -0.217860000
| 29> 9        3.367498000     -1.891327000      0.314432000
| 30> 9        3.532910000     -0.240279000      1.752496000
| 31> 9        2.213071000      1.424926000      0.182361000
| 32> 9        2.341114000      0.066756000     -1.535982000
| 33> 9        0.705256000     -1.669311000     -0.505675000
| 34> 9        0.906554000     -0.867676000      1.525896000
| 35> 9       -0.409082000      1.320727000      0.956974000
| 36> 9       -0.231277000      1.013399000     -1.209479000
| 37> 9       -1.729221000     -1.305214000      0.958317000
| 38> 9       -1.868278000     -1.019201000     -1.211778000
| 39> 9       -2.828979000      1.673316000     -0.546449000
| 40> 9       -3.053551000      0.881748000      1.487868000
| 41> 9       -4.486992000     -1.301122000      0.344409000
| 42> 9       -5.334147000      0.695462000      0.210829000
| 43> 9       -4.446208000     -0.220271000     -1.542486000
| 44> 1        5.968534000     -0.454162000     -1.638283000
| 45> *
| 46>
| 47>                          ****END OF INPUT****

CARTESIAN COORDINATES (ANGSTROEM)
---------------------------------
  C      4.787978   -0.031642   -0.227908
  O      5.164428   -0.826267   -1.220449
  O      5.327449    0.972628    0.148858
  C      3.483805   -0.547478    0.438770
  C      2.222374    0.125538   -0.190029
  C      0.863120   -0.539879    0.217814
  C     -0.375873    0.390429   -0.020701
  C     -1.739712   -0.383465   -0.028415
  C     -2.980012    0.547426    0.184294
  C     -4.346227   -0.096282   -0.217860
  F      3.367498   -1.891327    0.314432
  F      3.532910   -0.240279    1.752496
  F      2.213071    1.424926    0.182361
  F      2.341114    0.066756   -1.535982
  F      0.705256   -1.669311   -0.505675
  F      0.906554   -0.867676    1.525896
  F     -0.409082    1.320727    0.956974
  F     -0.231277    1.013399   -1.209479
  F     -1.729221   -1.305214    0.958317
  F     -1.868278   -1.019201   -1.211778
  F     -2.828979    1.673316   -0.546449
  F     -3.053551    0.881748    1.487868
  F     -4.486992   -1.301122    0.344409
  F     -5.334147    0.695462    0.210829
  F     -4.446208   -0.220271   -1.542486
  H      5.968534   -0.454162   -1.638283

 Total Charge           Charge          ....    0
 Multiplicity           Mult            ....    1
 Number of Electrons    NEL             ....  200
 Basis Dimension        Dim             ....  781

ORBITAL ENERGIES
----------------

  NO   OCC          E(Eh)            E(eV)
   0   2.0000     -24.663156      -671.1186
   1   2.0000     -24.663151      -671.1185
   2   2.0000     -24.662949      -671.1130
   3   2.0000     -24.662816      -671.1094
   4   2.0000     -24.662725      -671.1069
   5   2.0000     -24.662388      -671.0977
   6   2.0000     -24.661827      -671.0824
   7   2.0000     -24.661731      -671.0798
   8   2.0000     -24.661478      -671.0729
   9   2.0000     -24.660984      -671.0595
  10   2.0000     -24.660957      -671.0587
  11   2.0000     -24.660300      -671.0409
  12   2.0000     -24.659891      -671.0297
  13   2.0000     -24.651503      -670.8015
  14   2.0000     -24.649742      -670.7536
  15   2.0000     -19.133756      -520.6560
  16   2.0000     -19.080138      -519.1970
  17   2.0000     -10.397645      -282.9343
  18   2.0000     -10.348538      -281.5980
  19   2.0000     -10.348119      -281.5866
  20   2.0000     -10.347130      -281.5597
  21   2.0000     -10.346275      -281.5364
  22   2.0000     -10.342762      -281.4409
  23   2.0000     -10.333236      -281.1816
  24   2.0000     -10.281298      -279.7684
  25   2.0000      -1.324097       -36.0305
  26   2.0000      -1.306589       -35.5541
  27   2.0000      -1.294630       -35.2287
  28   2.0000      -1.283630       -34.9294
  29   2.0000      -1.280387       -34.8411
  30   2.0000      -1.278532       -34.7906
  31   2.0000      -1.271503       -34.5994
  32   2.0000      -1.241056       -33.7708
  33   2.0000      -1.236754       -33.6538
  34   2.0000      -1.233086       -33.5540
  35   2.0000      -1.231480       -33.5103
  36   2.0000      -1.226892       -33.3854
  37   2.0000      -1.224250       -33.3135
  38   2.0000      -1.223547       -33.2944
  39   2.0000      -1.215752       -33.0823
  40   2.0000      -1.119722       -30.4692
  41   2.0000      -1.035863       -28.1873
  42   2.0000      -0.830497       -22.5990
  43   2.0000      -0.814514       -22.1640
  44   2.0000      -0.790326       -21.5059
  45   2.0000      -0.756912       -20.5966
  46   2.0000      -0.715478       -19.4691
  47   2.0000      -0.678320       -18.4580
  48   2.0000      -0.660079       -17.9617
  49   2.0000      -0.643238       -17.5034
  50   2.0000      -0.627262       -17.0687
  51   2.0000      -0.624240       -16.9864
  52   2.0000      -0.613951       -16.7064
  53   2.0000      -0.609437       -16.5836
  54   2.0000      -0.608095       -16.5471
  55   2.0000      -0.602918       -16.4062
  56   2.0000      -0.593025       -16.1370
  57   2.0000      -0.588361       -16.0101
  58   2.0000      -0.584677       -15.9099
  59   2.0000      -0.579247       -15.7621
  60   2.0000      -0.574793       -15.6409
  61   2.0000      -0.567872       -15.4526
  62   2.0000      -0.561042       -15.2667
  63   2.0000      -0.556986       -15.1563
  64   2.0000      -0.546838       -14.8802
  65   2.0000      -0.498161       -13.5557
  66   2.0000      -0.490916       -13.3585
  67   2.0000      -0.488690       -13.2979
  68   2.0000      -0.483323       -13.1519
  69   2.0000      -0.480706       -13.0807
  70   2.0000      -0.476815       -12.9748
  71   2.0000      -0.473593       -12.8871
  72   2.0000      -0.470976       -12.8159
  73   2.0000      -0.466771       -12.7015
  74   2.0000      -0.462095       -12.5742
  75   2.0000      -0.461500       -12.5580
  76   2.0000      -0.459107       -12.4929
  77   2.0000      -0.454916       -12.3789
  78   2.0000      -0.452141       -12.3034
  79   2.0000      -0.448139       -12.1945
  80   2.0000      -0.444277       -12.0894
  81   2.0000      -0.440923       -11.9981
  82   2.0000      -0.435999       -11.8641
  83   2.0000      -0.433309       -11.7909
  84   2.0000      -0.429207       -11.6793
  85   2.0000      -0.426715       -11.6115
  86   2.0000      -0.425688       -11.5836
  87   2.0000      -0.423515       -11.5244
  88   2.0000      -0.421894       -11.4803
  89   2.0000      -0.418838       -11.3972
  90   2.0000      -0.417717       -11.3667
  91   2.0000      -0.414582       -11.2814
  92   2.0000      -0.413763       -11.2591
  93   2.0000      -0.410980       -11.1833
  94   2.0000      -0.404211       -10.9991
  95   2.0000      -0.387232       -10.5371
  96   2.0000      -0.360194        -9.8014
  97   2.0000      -0.340545        -9.2667
  98   2.0000      -0.330321        -8.9885
  99   2.0000      -0.296312        -8.0631
 100   0.0000      -0.066974        -1.8224
 101   0.0000      -0.021549        -0.5864
 102   0.0000      -0.009006        -0.2451
 103   0.0000       0.015795         0.4298
 104   0.0000       0.029731         0.8090

MULLIKEN ATOMIC CHARGES
-----------------------
   0 C :    0.223217
   1 O :   -0.338163
   2 O :   -0.287473
   3 C :    0.377112
   4 C :    0.266407
   5 C :    0.290387
   6 C :    0.297363
   7 C :    0.272464
   8 C :    0.296081
   9 C :    0.408602
  10 F :   -0.158963
  11 F :   -0.154214
  12 F :   -0.151895
  13 F :   -0.152832
  14 F :   -0.148318
  15 F :   -0.146525
  16 F :   -0.146556
  17 F :   -0.146717
  18 F :   -0.147617
  19 F :   -0.146549
  20 F :   -0.146190
  21 F :   -0.142580
  22 F :   -0.135229
  23 F :   -0.132025
  24 F :   -0.132533
  25 H :    0.382746
Sum of atomic charges:    0.0000000

LOEWDIN ATOMIC CHARGES
----------------------
   0 C :   -0.491130
   1 O :    0.157270
   2 O :    0.136566
   3 C :   -0.452538
   4 C :   -0.455598
   5 C :   -0.459154
   6 C :   -0.459462
   7 C :   -0.460792
   8 C :   -0.466604
   9 C :   -0.668208
  10 F :    0.210660
  11 F :    0.217023
  12 F :    0.226171
  13 F :    0.224090
  14 F :    0.226985
  15 F :    0.228890
  16 F :    0.228826
  17 F :    0.228780
  18 F :    0.228250
  19 F :    0.228767
  20 F :    0.225693
  21 F :    0.227598
  22 F :    0.226982
  23 F :    0.227515
  24 F :    0.229329
  25 H :    0.234091

  Mayer bond orders larger than 0.100000
B(  0-C ,  1-O ) :   1.3155 B(  0-C ,  2-O ) :   2.0733 B(  0-C ,  3-C ) :   0.9053
B(  1-O , 25-H ) :   0.8193 B(  3-C ,  4-C ) :   0.9582 B(  3-C , 10-F ) :   1.0995
B(  3-C , 11-F ) :   1.1193 B(  4-C ,  5-C ) :   0.9499 B(  4-C , 12-F ) :   1.0935
B(  4-C , 13-F ) :   1.0901 B(  5-C ,  6-C ) :   0.9551 B(  5-C , 14-F ) :   1.0964
B(  5-C , 15-F ) :   1.0988 B(  6-C ,  7-C ) :   0.9486 B(  6-C , 16-F ) :   1.0967
B(  6-C , 17-F ) :   1.0951 B(  7-C ,  8-C ) :   0.9435 B(  7-C , 18-F ) :   1.0961
B(  7-C , 19-F ) :   1.1048 B(  8-C ,  9-C ) :   0.9707 B(  8-C , 20-F ) :   1.1005
B(  8-C , 21-F ) :   1.1133 B(  9-C , 22-F ) :   1.1598 B(  9-C , 23-F ) :   1.1627
B(  9-C , 24-F ) :   1.1717

Dispersion correction           -0.031172407
FINAL SINGLE POINT ENERGY     -1954.345337628354

DIPOLE MOMENT
-------------

Method             : SCF
Type of density    : Electron Density
Multiplicity       :   1
Irrep              :   0
Energy             : -1954.3141652215226713 Eh
Relativity type    :
Basis              : AO
                                X                 Y                 Z
Electronic contribution:    -14.947210863      -0.306543683       1.595908321
Nuclear contribution   :     15.675947823      -0.086624073      -2.475132895
                        -----------------------------------------
Total Dipole Moment    :      0.728736960      -0.393167756      -0.879224574
                        -----------------------------------------
Magnitude (a.u.)       :      1.207755891
Magnitude (Debye)      :      3.069871509

VIBRATIONAL FREQUENCIES
-----------------------

Scaling factor for frequencies =  1.000000000  (already applied!)

     0:       0.00 cm**-1
     1:       0.00 cm**-1
     2:       0.00 cm**-1
     3:       0.00 cm**-1
     4:       0.00 cm**-1
     5:       0.00 cm**-1
     6:      21.77 cm**-1
     7:      29.59 cm**-1
     8:      31.68 cm**-1
     9:      44.01 cm**-1
    10:      52.81 cm**-1
    11:      58.96 cm**-1
    12:      62.10 cm**-1
    13:      70.03 cm**-1
    14:     112.39 cm**-1
    15:     129.36 cm**-1
    16:     153.57 cm**-1
    17:     176.71 cm**-1
    18:     193.17 cm**-1
    19:     195.35 cm**-1
    20:     198.30 cm**-1
    21:     221.01 cm**-1
    22:     233.51 cm**-1
    23:     243.73 cm**-1
    24:     248.26 cm**-1
    25:     253.76 cm**-1
    26:     276.49 cm**-1
    27:     298.03 cm**-1
    28:     303.36 cm**-1
    29:     326.10 cm**-1
    30:     339.58 cm**-1
    31:     351.12 cm**-1
    32:     354.60 cm**-1
    33:     359.98 cm**-1
    34:     366.63 cm**-1
    35:     368.45 cm**-1
    36:     401.69 cm**-1
    37:     455.96 cm**-1
    38:     502.83 cm**-1
    39:     508.05 cm**-1
    40:     520.87 cm**-1
    41:     544.80 cm**-1
    42:     552.38 cm**-1
    43:     571.39 cm**-1
    44:     579.90 cm**-1
    45:     589.56 cm**-1
    46:     608.09 cm**-1
    47:     631.27 cm**-1
    48:     640.50 cm**-1
    49:     672.74 cm**-1
    50:     694.87 cm**-1
    51:     713.92 cm**-1
    52:     743.36 cm**-1
    53:     765.46 cm**-1
    54:     861.59 cm**-1
    55:     994.91 cm**-1
    56:    1084.99 cm**-1
    57:    1109.94 cm**-1
    58:    1120.63 cm**-1
    59:    1125.48 cm**-1
    60:    1131.62 cm**-1
    61:    1136.81 cm**-1
    62:    1139.21 cm**-1
    63:    1143.33 cm**-1
    64:    1151.51 cm**-1
    65:    1154.68 cm**-1
    66:    1162.34 cm**-1
    67:    1174.19 cm**-1
    68:    1178.70 cm**-1
    69:    1191.82 cm**-1
    70:    1215.31 cm**-1
    71:    1244.39 cm**-1
    72:    1262.70 cm**-1
    73:    1282.68 cm**-1
    74:    1335.88 cm**-1
    75:    1391.98 cm**-1
    76:    1809.12 cm**-1
    77:    3604.36 cm**-1

IR SPECTRUM
-----------

 Mode   freq       eps      Int      T**2         TX        TY        TZ
       cm**-1   L/(mol*cm) km/mol    a.u.
----------------------------------------------------------------------------
  6:     21.77   0.000238    1.21  0.003419  ( 0.010684  0.056101 -0.012538)
  7:     29.59   0.000115    0.58  0.001213  ( 0.015360 -0.021745  0.022463)
  8:     31.68   0.000029    0.15  0.000283  ( 0.007657  0.014641  0.003221)
  9:     44.01   0.000143    0.72  0.001013  (-0.013644  0.024222 -0.015493)
 10:     52.81   0.000311    1.57  0.001841  (-0.024757  0.013422 -0.032366)
 11:     58.96   0.000147    0.74  0.000776  (-0.020334  0.004570 -0.018481)
 12:     62.10   0.000025    0.13  0.000128  (-0.003599 -0.009000 -0.005796)
 13:     70.03   0.000115    0.58  0.000511  (-0.020094 -0.008649 -0.005687)
 14:    112.39   0.000139    0.70  0.000387  ( 0.013227 -0.014558  0.000498)
 15:    129.36   0.000007    0.04  0.000017  ( 0.001515 -0.003374 -0.001944)
 16:    153.57   0.000134    0.68  0.000273  (-0.014826 -0.001175 -0.007186)
 17:    176.71   0.003110   15.72  0.005492  (-0.003938  0.005358  0.073809)
 18:    193.17   0.000129    0.65  0.000209  ( 0.012391 -0.007209  0.001794)
 19:    195.35   0.000121    0.61  0.000193  ( 0.010702 -0.005010  0.007309)
 20:    198.30   0.000393    1.99  0.000619  (-0.001674 -0.024588  0.003436)
 21:    221.01   0.000117    0.59  0.000165  ( 0.004356  0.004500 -0.011204)
 22:    233.51   0.000016    0.08  0.000021  ( 0.004130  0.001600  0.001344)
 23:    243.73   0.000172    0.87  0.000221  ( 0.013670  0.003940 -0.004291)
 24:    248.26   0.000016    0.08  0.000020  ( 0.000338  0.004325  0.000988)
 25:    253.76   0.000308    1.56  0.000379  (-0.016819 -0.008559  0.004763)
 26:    276.49   0.001356    6.85  0.001531  ( 0.036358 -0.014128 -0.003034)
 27:    298.03   0.000041    0.21  0.000043  ( 0.002386  0.000181 -0.006108)
 28:    303.36   0.000104    0.53  0.000107  ( 0.008244 -0.006084  0.001549)
 29:    326.10   0.000071    0.36  0.000068  ( 0.006889  0.000493  0.004457)
 30:    339.58   0.000303    1.53  0.000278  (-0.007485 -0.006927 -0.013195)
 31:    351.12   0.000138    0.70  0.000123  (-0.001491  0.003384  0.010438)
 32:    354.60   0.000026    0.13  0.000023  ( 0.003125  0.002894  0.002170)
 33:    359.98   0.000152    0.77  0.000132  ( 0.011426 -0.000642  0.000736)
 34:    366.63   0.000740    3.74  0.000630  (-0.022517 -0.010767 -0.002614)
 35:    368.45   0.000211    1.06  0.000178  ( 0.007941  0.010010  0.003894)
 36:    401.69   0.000290    1.46  0.000225  ( 0.004668 -0.014162  0.001654)
 37:    455.96   0.000753    3.81  0.000516  ( 0.015312 -0.004302 -0.016204)
 38:    502.83   0.015918   80.44  0.009879  (-0.095915  0.016157  0.020453)
 39:    508.05   0.000720    3.64  0.000442  ( 0.019625  0.005703 -0.004943)
 40:    520.87   0.001824    9.22  0.001093  (-0.010162  0.031388 -0.002105)
 41:    544.80   0.011426   57.74  0.006545  (-0.069667 -0.034730  0.022020)
 42:    552.38   0.003199   16.17  0.001807  ( 0.011293 -0.038848  0.013059)
 43:    571.39   0.005194   26.25  0.002837  (-0.039729  0.007042  0.034770)
 44:    579.90   0.014027   70.89  0.007548  ( 0.071389 -0.020436  0.045103)
 45:    589.56   0.002324   11.74  0.001230  ( 0.029680 -0.000521 -0.018673)
 46:    608.09   0.005369   27.13  0.002755  ( 0.019504  0.020944 -0.044003)
 47:    631.27   0.062992  318.33  0.031139  ( 0.163283 -0.059232  0.031137)
 48:    640.50   0.004470   22.59  0.002178  (-0.016521 -0.001480 -0.043620)
 49:    672.74   0.004035   20.39  0.001872  ( 0.025568  0.029525 -0.018614)
 50:    694.87   0.006515   32.92  0.002926  ( 0.046914  0.005811  0.026290)
 51:    713.92   0.001572    7.94  0.000687  ( 0.024131  0.001647 -0.010108)
 52:    743.36   0.001711    8.65  0.000718  (-0.014918 -0.008124  0.020733)
 53:    765.46   0.006752   34.12  0.002753  ( 0.026706  0.013594 -0.043068)
 54:    861.59   0.001809    9.14  0.000655  ( 0.020842 -0.014857 -0.000356)
 55:    994.91   0.014956   75.58  0.004691  ( 0.067373 -0.010280  0.006805)
 56:   1084.99   0.009869   49.87  0.002839  ( 0.026226  0.045531  0.008813)
 57:   1109.94   0.006881   34.77  0.001935  (-0.021729 -0.000021 -0.038242)
 58:   1120.63   0.043226  218.45  0.012037  (-0.003199  0.082896  0.071801)
 59:   1125.48   0.079239  400.44  0.021971  ( 0.038313  0.111818 -0.089441)
 60:   1131.62   0.000397    2.00  0.000109  (-0.006382 -0.005820  0.005897)
 61:   1136.81   0.067218  339.69  0.018452  (-0.001129  0.134464  0.019242)
 62:   1139.21   0.018800   95.01  0.005150  (-0.013182  0.069888  0.009578)
 63:   1143.33   0.042594  215.25  0.011626  (-0.006013 -0.082757 -0.068854)
 64:   1151.51   0.188621  953.21  0.051117  ( 0.001728 -0.030467 -0.224022)
 65:   1154.68   0.103928  525.21  0.028087  ( 0.030825 -0.163099 -0.023150)
 66:   1162.34   0.076110  384.63  0.020434  ( 0.009319  0.013197 -0.142032)
 67:   1174.19   0.041482  209.63  0.011025  ( 0.036874  0.014158 -0.097286)
 68:   1178.70   0.035823  181.04  0.009484  (-0.018121  0.025490 -0.092229)
 69:   1191.82   0.009653   48.78  0.002528  ( 0.028882 -0.036711 -0.018595)
 70:   1215.31   0.007709   38.96  0.001980  ( 0.033583 -0.003129 -0.029016)
 71:   1244.39   0.001607    8.12  0.000403  ( 0.007183  0.016299  0.009263)
 72:   1262.70   0.003523   17.80  0.000871  (-0.020476  0.017274  0.012370)
 73:   1282.68   0.010888   55.03  0.002649  ( 0.044860 -0.019555  0.015943)
 74:   1335.88   0.017610   89.00  0.004114  ( 0.063990  0.002701 -0.003436)
 75:   1391.98   0.015472   78.19  0.003469  (-0.042013  0.029391  0.028977)
 76:   1809.12   0.091229  461.03  0.015736  (-0.040497 -0.100477 -0.063252)
 77:   3604.36   0.048192  243.54  0.004172  (-0.050831 -0.004108  0.039646)

--------------------------
THERMOCHEMISTRY AT 298.15K
--------------------------

Temperature         ...   298.15 K
Pressure            ...     1.00 atm
Total Mass          ...   414.06 AMU
Quasi RRHO          ...     True
Cut-Off Frequency   ...     1.00 cm^-1

Throughout the following assumptions are being made:
  (1) The electronic state is orbitally nondegenerate
  (2) There are no thermally accessible electronically excited states
  (3) Hindered rotations indicated by low frequency modes are not
      treated as such but are treated as vibrations and this may
      cause some error
  (4) All equations used are the standard statistical mechanics
      equations for an ideal gas
  (5) All vibrations are strictly harmonic

freq.      21.77  E(vib)   ...       0.56
freq.      29.59  E(vib)   ...       0.55
freq.      31.68  E(vib)   ...       0.55
freq.      44.01  E(vib)   ...       0.53
freq.      52.81  E(vib)   ...       0.52
freq.      58.96  E(vib)   ...       0.51
freq.      62.10  E(vib)   ...       0.51
freq.      70.03  E(vib)   ...       0.50
freq.     112.39  E(vib)   ...       0.45
freq.     129.36  E(vib)   ...       0.43
freq.     153.57  E(vib)   ...       0.40
freq.     176.71  E(vib)   ...       0.38
freq.     193.17  E(vib)   ...       0.36
freq.     195.35  E(vib)   ...       0.36
freq.     198.30  E(vib)   ...       0.35
freq.     221.01  E(vib)   ...       0.33
freq.     233.51  E(vib)   ...       0.32
freq.     243.73  E(vib)   ...       0.31
freq.     248.26  E(vib)   ...       0.31
freq.     253.76  E(vib)   ...       0.30
freq.     276.49  E(vib)   ...       0.28
freq.     298.03  E(vib)   ...       0.27
freq.     303.36  E(vib)   ...       0.26
freq.     326.10  E(vib)   ...       0.24
freq.     339.58  E(vib)   ...       0.23
freq.     351.12  E(vib)   ...       0.23
freq.     354.60  E(vib)   ...       0.22
freq.     359.98  E(vib)   ...       0.22
freq.     366.63  E(vib)   ...       0.22
freq.     368.45  E(vib)   ...       0.21
freq.     401.69  E(vib)   ...       0.19
freq.     455.96  E(vib)   ...       0.16
freq.     502.83  E(vib)   ...       0.14
freq.     508.05  E(vib)   ...       0.14
freq.     520.87  E(vib)   ...       0.13
freq.     544.80  E(vib)   ...       0.12
freq.     552.38  E(vib)   ...       0.12
freq.     571.39  E(vib)   ...       0.11
freq.     579.90  E(vib)   ...       0.11
freq.     589.56  E(vib)   ...       0.10
freq.     608.09  E(vib)   ...       0.10
freq.     631.27  E(vib)   ...       0.09
freq.     640.50  E(vib)   ...       0.09
freq.     672.74  E(vib)   ...       0.08
freq.     694.87  E(vib)   ...       0.07
freq.     713.92  E(vib)   ...       0.07
freq.     743.36  E(vib)   ...       0.06
freq.     765.46  E(vib)   ...       0.06
freq.     861.59  E(vib)   ...       0.04
freq.     994.91  E(vib)   ...       0.02
freq.    1084.99  E(vib)   ...       0.02
freq.    1109.94  E(vib)   ...       0.02
freq.    1120.63  E(vib)   ...       0.01
freq.    1125.48  E(vib)   ...       0.01
freq.    1131.62  E(vib)   ...       0.01
freq.    1136.81  E(vib)   ...       0.01
freq.    1139.21  E(vib)   ...       0.01
freq.    1143.33  E(vib)   ...       0.01
freq.    1151.51  E(vib)   ...       0.01
freq.    1154.68  E(vib)   ...       0.01
freq.    1162.34  E(vib)   ...       0.01
freq.    1174.19  E(vib)   ...       0.01
freq.    1178.70  E(vib)   ...       0.01
freq.    1191.82  E(vib)   ...       0.01
freq.    1215.31  E(vib)   ...       0.01
freq.    1244.39  E(vib)   ...       0.01
freq.    1262.70  E(vib)   ...       0.01
freq.    1282.68  E(vib)   ...       0.01
freq.    1335.88  E(vib)   ...       0.01
freq.    1391.98  E(vib)   ...       0.00
freq.    1809.12  E(vib)   ...       0.00
freq.    3604.36  E(vib)   ...       0.00

------------
INNER ENERGY
------------

The inner energy is: U= E(el) + E(ZPE) + E(vib) + E(rot) + E(trans)
    E(el)   - is the total energy from the electronic structure calculation
              = E(kin-el) + E(nuc-el) + E(el-el) + E(nuc-nuc)
    E(ZPE)  - the the zero temperature vibrational energy from the frequency calculation
    E(vib)  - the the finite temperature correction to E(ZPE) due to population
              of excited vibrational states
    E(rot)  - is the rotational thermal energy
    E(trans)- is the translational thermal energy

Summary of contributions to the inner energy U:
Electronic energy                ...  -1954.34533763 Eh
Zero point energy                ...      0.10885130 Eh      68.31 kcal/mol
Thermal vibrational correction   ...      0.02092940 Eh      13.13 kcal/mol
Thermal rotational correction    ...      0.00141627 Eh       0.89 kcal/mol
Thermal translational correction ...      0.00141627 Eh       0.89 kcal/mol
-----------------------------------------------------------------------
Total thermal energy                  -1954.21272438 Eh

Summary of corrections to the electronic energy:
(perhaps to be used in another calculation)
Total thermal correction                  0.02376195 Eh      14.91 kcal/mol
Non-thermal (ZPE) correction              0.10885130 Eh      68.31 kcal/mol
-----------------------------------------------------------------------
Total correction                          0.13261324 Eh      83.22 kcal/mol

--------
ENTHALPY
--------

The enthalpy is H = U + kB*T
                kB is Boltzmann's constant
Total thermal energy              ...  -1954.21272438 Eh
Thermal Enthalpy correction       ...      0.00094421 Eh       0.59 kcal/mol
-----------------------------------------------------------------------
Total Enthalpy                    ...  -1954.21178018 Eh

Note: Only C1 symmetry has been detected, increase convergence thresholds
      if your molecule has a higher symmetry. Symmetry factor of 1.0 is
      used for the rotational entropy correction.

Note: Rotational entropy computed according to Herzberg
Infrared and Raman Spectra, Chapter V,1, Van Nostrand Reinhold, 1945
Point Group:  C1, Symmetry Number:   1
Rotational constants in cm-1:     0.021210     0.003676     0.003637

Vibrational entropy computed according to the QRRHO of S. Grimme
Chem.Eur.J. 2012 18 9955 using a reference frequency of 100.0 cm-1

-------
ENTROPY
-------

The entropy contributions are T*S = T*(S(el)+S(vib)+S(rot)+S(trans))
     S(el)   - electronic entropy
     S(vib)  - vibrational entropy
     S(rot)  - rotational entropy
     S(trans)- translational entropy
The entropies will be listed as multiplied by the temperature to get
units of energy

                             ****ORCA TERMINATED NORMALLY****
TOTAL RUN TIME: 0 days 0 hours 16 minutes 34 seconds 277 msec
