                         Program Version 5.0.3 -  RELEASE  -
|  1> !B3LYP def2-TZVP opt d3 TightSCF SlowConv defgrid2
|  2>
|  3> %pal
|  4> nprocs 20
|  5> end
|  6>
|  7> %scf
|  8> MaxIter 1500
|  9> end
| 10>
| 11> %maxcore 8000
| 12>
| 13> !CPCM
| 14> %cpcm smd true
| 15> SMDsolvent "ACETONITRILE"
| 16> end
| 17>
| 18> * xyz -1 2
| 19> 6        4.790427000     -0.033865800     -0.529943200
| 20> 8        5.449345000     -1.206924000     -0.894594600
| 21> 8        4.978223000      1.323071000     -0.737377200
| 22> 6        3.506687600     -0.338741600      0.376153800
| 23> 6        2.222300000      0.400524800     -0.110681600
| 24> 6        0.900506800     -0.386389800      0.175703000
| 25> 6       -0.395261200      0.487294000      0.065549000
| 26> 6       -1.705693600     -0.364773800     -0.068373600
| 27> 6       -3.005136200      0.445344800      0.258164000
| 28> 6       -4.319880200     -0.214526000     -0.270540800
| 29> 9        3.211587400     -1.692050400      0.412735200
| 30> 9        3.741061800      0.055285800      1.689948800
| 31> 9        2.125696800      1.616867800      0.483236600
| 32> 9        2.314152400      0.589704000     -1.455769200
| 33> 9        0.794028800     -1.413561400     -0.700839000
| 34> 9        0.958350600     -0.884509000      1.435093400
| 35> 9       -0.498373400      1.260265600      1.173340200
| 36> 9       -0.299075000      1.289512600     -1.020910800
| 37> 9       -1.641790400     -1.418189000      0.779523800
| 38> 9       -2.918792200      1.679227200     -0.295171200
| 39> 9       -3.119771000      0.573779800      1.598579800
| 40> 9       -4.383115600     -1.504377600      0.089127600
| 41> 9       -5.365669800      0.430528600      0.260394200
| 42> 9       -4.396020400     -0.128550600     -1.602941800
| 43> *
| 44>
| 45>                          ****END OF INPUT****
 Total Charge           Charge          ....   -1
 Multiplicity           Mult            ....    2
 Number of Electrons    NEL             ....  191
Dispersion correction           -0.041543437
FINAL SINGLE POINT ENERGY     -1853.220704467020
Dispersion correction            ... done
Dispersion correction           -0.041746610
FINAL SINGLE POINT ENERGY     -1853.266130938615
Dispersion correction            ... done
Dispersion correction           -0.041847536
FINAL SINGLE POINT ENERGY     -1853.275154197681
Dispersion correction            ... done
FINAL SINGLE POINT ENERGY     -1853.279976416749
FINAL SINGLE POINT ENERGY     -1853.281317749926
FINAL SINGLE POINT ENERGY     -1853.282474746498
FINAL SINGLE POINT ENERGY     -1853.283334946939
FINAL SINGLE POINT ENERGY     -1853.283843406882
FINAL SINGLE POINT ENERGY     -1853.284027641062
FINAL SINGLE POINT ENERGY     -1853.284059968253
FINAL SINGLE POINT ENERGY     -1853.284658622841
FINAL SINGLE POINT ENERGY     -1853.284615416890
FINAL SINGLE POINT ENERGY     -1853.284704306274
FINAL SINGLE POINT ENERGY     -1853.284499382835
FINAL SINGLE POINT ENERGY     -1853.284775187964
FINAL SINGLE POINT ENERGY     -1853.284810651334
FINAL SINGLE POINT ENERGY     -1853.284911750716
Dispersion correction            ... done
Dispersion correction           -0.042490776
FINAL SINGLE POINT ENERGY     -1853.284931210459
Dispersion correction            ... done
Dispersion correction           -0.042481622
FINAL SINGLE POINT ENERGY     -1853.284931008523
Dispersion correction            ... done
                    ***********************HURRAY********************

CARTESIAN COORDINATES (ANGSTROEM)
---------------------------------
  C      4.354738   -0.212322   -1.062916
  O      4.614035   -1.152292   -1.824891
  O      4.801640    0.943723   -0.990323
  C      3.254015   -0.518510    0.033163
  C      1.968092    0.337060   -0.148391
  C      0.705661   -0.209564    0.597381
  C     -0.452126    0.837461    0.777233
  C     -1.758609    0.191839    1.118936
  C     -3.091097    0.400126    0.459114
  C     -3.318374   -0.388115   -0.869702
  F      2.871558   -1.828907    0.022570
  F      3.751399   -0.273270    1.285100
  F      2.195564    1.599444    0.278185
  F      1.671003    0.384186   -1.472084
  F      0.205084   -1.257133   -0.096312
  F      1.062689   -0.645370    1.825361
  F     -0.083071    1.699545    1.767603
  F     -0.588067    1.552566   -0.362706
  F     -1.716587   -0.736541    2.058330
  F     -3.278340    1.713113    0.176755
  F     -4.057789   -0.003982    1.317207
  F     -3.115797   -1.693109   -0.664487
  F     -4.571345   -0.211970   -1.297375
  F     -2.480491    0.036970   -1.817343

 Multiplicity           Mult            ....    2
 Number of Electrons    NEL             ....  191
 Basis Dimension        Dim             ....  744

ORBITAL ENERGIES
----------------
                 SPIN UP ORBITALS
  NO   OCC          E(Eh)            E(eV)
   0   1.0000     -24.755921      -673.6429
   1   1.0000     -24.741249      -673.2436
   2   1.0000     -24.741181      -673.2418
   3   1.0000     -24.740201      -673.2151
   4   1.0000     -24.735771      -673.0945
   5   1.0000     -24.735173      -673.0783
   6   1.0000     -24.734408      -673.0574
   7   1.0000     -24.732464      -673.0046
   8   1.0000     -24.732041      -672.9930
   9   1.0000     -24.726917      -672.8536
  10   1.0000     -24.721865      -672.7161
  11   1.0000     -24.721662      -672.7106
  12   1.0000     -24.697838      -672.0623
  13   1.0000     -24.697450      -672.0518
  14   1.0000     -19.061174      -518.6809
  15   1.0000     -19.059282      -518.6294
  16   1.0000     -10.454910      -284.4926
  17   1.0000     -10.403546      -283.0949
  18   1.0000     -10.400014      -282.9988
  19   1.0000     -10.392775      -282.8018
  20   1.0000     -10.380198      -282.4596
  21   1.0000     -10.342567      -281.4356
  22   1.0000     -10.326138      -280.9885
  23   1.0000     -10.253896      -279.0227
  24   1.0000      -1.348592       -36.6970
  25   1.0000      -1.317412       -35.8486
  26   1.0000      -1.306545       -35.5529
  27   1.0000      -1.296503       -35.2796
  28   1.0000      -1.292729       -35.1769
  29   1.0000      -1.288849       -35.0714
  30   1.0000      -1.262055       -34.3423
  31   1.0000      -1.259981       -34.2858
  32   1.0000      -1.256918       -34.2025
  33   1.0000      -1.249463       -33.9996
  34   1.0000      -1.244317       -33.8596
  35   1.0000      -1.238375       -33.6979
  36   1.0000      -1.231960       -33.5233
  37   1.0000      -1.204348       -32.7720
  38   1.0000      -1.024208       -27.8701
  39   1.0000      -0.941783       -25.6272
  40   1.0000      -0.855818       -23.2880
  41   1.0000      -0.821386       -22.3510
  42   1.0000      -0.791519       -21.5383
  43   1.0000      -0.752790       -20.4845
  44   1.0000      -0.716469       -19.4961
  45   1.0000      -0.679443       -18.4886
  46   1.0000      -0.666510       -18.1367
  47   1.0000      -0.643177       -17.5017
  48   1.0000      -0.634288       -17.2598
  49   1.0000      -0.633578       -17.2405
  50   1.0000      -0.626093       -17.0369
  51   1.0000      -0.619713       -16.8633
  52   1.0000      -0.615994       -16.7621
  53   1.0000      -0.602595       -16.3974
  54   1.0000      -0.601586       -16.3700
  55   1.0000      -0.591244       -16.0886
  56   1.0000      -0.582016       -15.8375
  57   1.0000      -0.578365       -15.7381
  58   1.0000      -0.571986       -15.5645
  59   1.0000      -0.564415       -15.3585
  60   1.0000      -0.549500       -14.9527
  61   1.0000      -0.535550       -14.5730
  62   1.0000      -0.504746       -13.7348
  63   1.0000      -0.501799       -13.6546
  64   1.0000      -0.499111       -13.5815
  65   1.0000      -0.498007       -13.5515
  66   1.0000      -0.495898       -13.4941
  67   1.0000      -0.486108       -13.2277
  68   1.0000      -0.479790       -13.0557
  69   1.0000      -0.478571       -13.0226
  70   1.0000      -0.475742       -12.9456
  71   1.0000      -0.471342       -12.8259
  72   1.0000      -0.465979       -12.6799
  73   1.0000      -0.462318       -12.5803
  74   1.0000      -0.460478       -12.5303
  75   1.0000      -0.457670       -12.4538
  76   1.0000      -0.453662       -12.3448
  77   1.0000      -0.451112       -12.2754
  78   1.0000      -0.445225       -12.1152
  79   1.0000      -0.440626       -11.9900
  80   1.0000      -0.438802       -11.9404
  81   1.0000      -0.437114       -11.8945
  82   1.0000      -0.434145       -11.8137
  83   1.0000      -0.431797       -11.7498
  84   1.0000      -0.425407       -11.5759
  85   1.0000      -0.413680       -11.2568
  86   1.0000      -0.411581       -11.1997
  87   1.0000      -0.399471       -10.8701
  88   1.0000      -0.398570       -10.8456
  89   1.0000      -0.384550       -10.4641
  90   1.0000      -0.382785       -10.4161
  91   1.0000      -0.347177        -9.4472
  92   1.0000      -0.271532        -7.3888
  93   1.0000      -0.250194        -6.8081
  94   1.0000      -0.238282        -6.4840
  95   1.0000      -0.236517        -6.4360
  96   0.0000      -0.004181        -0.1138
  97   0.0000       0.023879         0.6498
  98   0.0000       0.037941         1.0324
  99   0.0000       0.054935         1.4949
 100   0.0000       0.075286         2.0486

                 SPIN DOWN ORBITALS
  NO   OCC          E(Eh)            E(eV)
   0   1.0000     -24.751399      -673.5198
   1   1.0000     -24.741210      -673.2425
   2   1.0000     -24.741129      -673.2403
   3   1.0000     -24.739863      -673.2059
   4   1.0000     -24.735618      -673.0904
   5   1.0000     -24.734841      -673.0692
   6   1.0000     -24.733714      -673.0386
   7   1.0000     -24.732385      -673.0024
   8   1.0000     -24.731939      -672.9903
   9   1.0000     -24.725572      -672.8170
  10   1.0000     -24.721858      -672.7160
  11   1.0000     -24.721662      -672.7106
  12   1.0000     -24.697831      -672.0622
  13   1.0000     -24.697451      -672.0518
  14   1.0000     -19.061156      -518.6804
  15   1.0000     -19.059279      -518.6294
  16   1.0000     -10.454121      -284.4711
  17   1.0000     -10.404441      -283.1192
  18   1.0000     -10.400819      -283.0207
  19   1.0000     -10.392359      -282.7905
  20   1.0000     -10.380156      -282.4584
  21   1.0000     -10.342544      -281.4349
  22   1.0000     -10.311664      -280.5946
  23   1.0000     -10.253891      -279.0226
  24   1.0000      -1.348101       -36.6837
  25   1.0000      -1.316058       -35.8118
  26   1.0000      -1.304062       -35.4853
  27   1.0000      -1.295548       -35.2537
  28   1.0000      -1.290000       -35.1027
  29   1.0000      -1.283832       -34.9349
  30   1.0000      -1.262036       -34.3417
  31   1.0000      -1.259687       -34.2778
  32   1.0000      -1.256373       -34.1877
  33   1.0000      -1.248814       -33.9820
  34   1.0000      -1.243138       -33.8275
  35   1.0000      -1.236786       -33.6547
  36   1.0000      -1.231919       -33.5222
  37   1.0000      -1.204340       -32.7718
  38   1.0000      -1.024187       -27.8696
  39   1.0000      -0.941759       -25.6266
  40   1.0000      -0.841843       -22.9077
  41   1.0000      -0.819171       -22.2908
  42   1.0000      -0.788522       -21.4568
  43   1.0000      -0.745826       -20.2949
  44   1.0000      -0.714761       -19.4496
  45   1.0000      -0.675389       -18.3783
  46   1.0000      -0.665005       -18.0957
  47   1.0000      -0.639677       -17.4065
  48   1.0000      -0.632862       -17.2211
  49   1.0000      -0.631449       -17.1826
  50   1.0000      -0.624850       -17.0030
  51   1.0000      -0.618139       -16.8204
  52   1.0000      -0.614670       -16.7260
  53   1.0000      -0.601257       -16.3610
  54   1.0000      -0.599301       -16.3078
  55   1.0000      -0.589383       -16.0379
  56   1.0000      -0.581052       -15.8112
  57   1.0000      -0.576352       -15.6833
  58   1.0000      -0.571028       -15.5385
  59   1.0000      -0.563452       -15.3323
  60   1.0000      -0.549471       -14.9519
  61   1.0000      -0.509478       -13.8636
  62   1.0000      -0.502733       -13.6801
  63   1.0000      -0.499990       -13.6054
  64   1.0000      -0.498865       -13.5748
  65   1.0000      -0.496712       -13.5162
  66   1.0000      -0.493179       -13.4201
  67   1.0000      -0.485339       -13.2067
  68   1.0000      -0.478271       -13.0144
  69   1.0000      -0.477468       -12.9926
  70   1.0000      -0.474305       -12.9065
  71   1.0000      -0.469688       -12.7808
  72   1.0000      -0.464129       -12.6296
  73   1.0000      -0.461177       -12.5493
  74   1.0000      -0.458189       -12.4680
  75   1.0000      -0.457335       -12.4447
  76   1.0000      -0.452980       -12.3262
  77   1.0000      -0.450275       -12.2526
  78   1.0000      -0.444565       -12.0972
  79   1.0000      -0.439691       -11.9646
  80   1.0000      -0.438268       -11.9259
  81   1.0000      -0.436146       -11.8681
  82   1.0000      -0.433132       -11.7861
  83   1.0000      -0.431516       -11.7421
  84   1.0000      -0.424376       -11.5479
  85   1.0000      -0.412951       -11.2370
  86   1.0000      -0.411568       -11.1993
  87   1.0000      -0.399143       -10.8612
  88   1.0000      -0.395982       -10.7752
  89   1.0000      -0.384513       -10.4631
  90   1.0000      -0.379910       -10.3379
  91   1.0000      -0.345609        -9.4045
  92   1.0000      -0.250184        -6.8079
  93   1.0000      -0.238422        -6.4878
  94   1.0000      -0.236523        -6.4361
  95   0.0000      -0.127220        -3.4618
  96   0.0000      -0.001433        -0.0390
  97   0.0000       0.025474         0.6932
  98   0.0000       0.041093         1.1182
  99   0.0000       0.057804         1.5729

MULLIKEN ATOMIC CHARGES AND SPIN POPULATIONS
--------------------------------------------
   0 C :    0.144275    0.000110
   1 O :   -0.471907    0.000622
   2 O :   -0.487183    0.000103
   3 C :    0.339310    0.000925
   4 C :    0.323044    0.002385
   5 C :    0.336981    0.007190
   6 C :    0.368570    0.001862
   7 C :    0.104483    0.839387
   8 C :    0.357778   -0.025526
   9 C :    0.474514    0.028424
  10 F :   -0.211449   -0.000009
  11 F :   -0.219227    0.000138
  12 F :   -0.184061   -0.000055
  13 F :   -0.192952    0.000164
  14 F :   -0.182677    0.001117
  15 F :   -0.177594    0.002026
  16 F :   -0.180076    0.024854
  17 F :   -0.180218    0.002840
  18 F :   -0.142999    0.087238
  19 F :   -0.170078    0.011980
  20 F :   -0.169543    0.006349
  21 F :   -0.162416    0.000588
  22 F :   -0.156643    0.006247
  23 F :   -0.159931    0.001042
Sum of atomic charges         :   -1.0000000

LOEWDIN ATOMIC CHARGES AND SPIN POPULATIONS
-------------------------------------------
   0 C :   -0.693094    0.000243
   1 O :   -0.049984    0.000575
   2 O :   -0.057365    0.000089
   3 C :   -0.436634    0.000931
   4 C :   -0.453254    0.002326
   5 C :   -0.446854    0.012690
   6 C :   -0.473619    0.061699
   7 C :   -0.162174    0.656149
   8 C :   -0.480884    0.064399
   9 C :   -0.660547    0.022200
  10 F :    0.164647    0.000002
  11 F :    0.153913    0.000166
  12 F :    0.208294    0.000019
  13 F :    0.200535    0.000218
  14 F :    0.212803    0.001926
  15 F :    0.213754    0.002550
  16 F :    0.192686    0.027697
  17 F :    0.217708    0.003826
  18 F :    0.265014    0.111964
  19 F :    0.208101    0.013740
  20 F :    0.212326    0.006450
  21 F :    0.220766    0.001201
  22 F :    0.220267    0.007517
  23 F :    0.223592    0.001422

  Mayer bond orders larger than 0.100000
B(  0-C ,  1-O ) :   1.8976 B(  0-C ,  2-O ) :   1.8720 B(  0-C ,  3-C ) :   0.8479
B(  3-C ,  4-C ) :   0.9178 B(  3-C , 10-F ) :   1.0433 B(  3-C , 11-F ) :   1.0267
B(  4-C ,  5-C ) :   0.9159 B(  4-C , 12-F ) :   1.0672 B(  4-C , 13-F ) :   1.0560
B(  5-C ,  6-C ) :   0.9254 B(  5-C , 14-F ) :   1.0575 B(  5-C , 15-F ) :   1.0709
B(  6-C ,  7-C ) :   1.0456 B(  6-C , 16-F ) :   1.0711 B(  6-C , 17-F ) :   1.0642
B(  7-C ,  8-C ) :   1.0136 B(  7-C , 18-F ) :   1.1236 B(  8-C ,  9-C ) :   0.9525
B(  8-C , 19-F ) :   1.0979 B(  8-C , 20-F ) :   1.0879 B(  9-C , 21-F ) :   1.1310
B(  9-C , 22-F ) :   1.1419 B(  9-C , 23-F ) :   1.1377

Dispersion correction           -0.042472358
FINAL SINGLE POINT ENERGY     -1853.284934084187

DIPOLE MOMENT
-------------
                                X             Y             Z
Electronic contribution:    -16.12351       0.24543       4.33213
Nuclear contribution   :      8.20376      -0.04144      -2.07802
                        -----------------------------------------
Total Dipole Moment    :     -7.91974       0.20399       2.25411
                        -----------------------------------------
Magnitude (a.u.)       :      8.23680
Magnitude (Debye)      :     20.93629

Rotational constants in cm-1:     0.017601     0.004572     0.004400
Rotational constants in MHz :   527.664732   137.069871   131.916282

                             ****ORCA TERMINATED NORMALLY****
TOTAL RUN TIME: 0 days 1 hours 16 minutes 20 seconds 103 msec
