                         Program Version 6.0.1  -  RELEASE   -
|  1> !TPSSh def2-TZVP freq d3 TightSCF SlowConv defgrid2
|  2>
|  3> %pal
|  4> nprocs 20
|  5> end
|  6>
|  7> %scf
|  8> MaxIter 1500
|  9> end
| 10>
| 11> %maxcore 8000
| 12>
| 13> !CPCM
| 14> %cpcm smd true
| 15> SMDsolvent "ACETONITRILE"
| 16> end
| 17>
| 18> * xyz 0 2
| 19> 6        4.781193000     -0.041199000     -0.267041000
| 20> 8        5.137647000     -0.854864000     -1.251758000
| 21> 8        5.331978000      0.966341000      0.083913000
| 22> 6        3.485705000     -0.540411000      0.428739000
| 23> 6        2.218133000      0.138208000     -0.182001000
| 24> 6        0.863888000     -0.528655000      0.238853000
| 25> 6       -0.379264000      0.401677000      0.021981000
| 26> 6       -1.739760000     -0.376000000      0.020737000
| 27> 6       -2.991335000      0.532828000      0.239131000
| 28> 6       -4.277170000     -0.161654000     -0.172435000
| 29> 9        3.357019000     -1.884248000      0.318130000
| 30> 9        3.561060000     -0.223109000      1.738983000
| 31> 9        2.215187000      1.435742000      0.195792000
| 32> 9        2.321565000      0.085515000     -1.529764000
| 33> 9        0.698393000     -1.654195000     -0.489470000
| 34> 9        0.924455000     -0.864511000      1.544484000
| 35> 9       -0.401349000      1.324694000      1.006440000
| 36> 9       -0.247594000      1.035233000     -1.163440000
| 37> 9       -1.714632000     -1.310496000      0.997181000
| 38> 9       -1.876696000     -0.999218000     -1.170141000
| 39> 9       -2.869340000      1.654761000     -0.508249000
| 40> 9       -3.034980000      0.910491000      1.548333000
| 41> 9       -4.511156000     -1.323849000      0.418692000
| 42> 9       -5.343250000      0.622400000     -0.151770000
| 43> 1        5.940856000     -0.498149000     -1.684553000
| 44> *
| 45>
| 46>                          ****END OF INPUT****

CARTESIAN COORDINATES (ANGSTROEM)
---------------------------------
  C      4.781193   -0.041199   -0.267041
  O      5.137647   -0.854864   -1.251758
  O      5.331978    0.966341    0.083913
  C      3.485705   -0.540411    0.428739
  C      2.218133    0.138208   -0.182001
  C      0.863888   -0.528655    0.238853
  C     -0.379264    0.401677    0.021981
  C     -1.739760   -0.376000    0.020737
  C     -2.991335    0.532828    0.239131
  C     -4.277170   -0.161654   -0.172435
  F      3.357019   -1.884248    0.318130
  F      3.561060   -0.223109    1.738983
  F      2.215187    1.435742    0.195792
  F      2.321565    0.085515   -1.529764
  F      0.698393   -1.654195   -0.489470
  F      0.924455   -0.864511    1.544484
  F     -0.401349    1.324694    1.006440
  F     -0.247594    1.035233   -1.163440
  F     -1.714632   -1.310496    0.997181
  F     -1.876696   -0.999218   -1.170141
  F     -2.869340    1.654761   -0.508249
  F     -3.034980    0.910491    1.548333
  F     -4.511156   -1.323849    0.418692
  F     -5.343250    0.622400   -0.151770
  H      5.940856   -0.498149   -1.684553

 Total Charge           Charge          ....    0
 Multiplicity           Mult            ....    2
 Number of Electrons    NEL             ....  191
 Basis Dimension        Dim             ....  750

ORBITAL ENERGIES
----------------
                 SPIN UP ORBITALS
  NO   OCC          E(Eh)            E(eV)
   0   1.0000     -24.666632      -671.2132
   1   1.0000     -24.665761      -671.1895
   2   1.0000     -24.661706      -671.0791
   3   1.0000     -24.661557      -671.0751
   4   1.0000     -24.661220      -671.0659
   5   1.0000     -24.661046      -671.0612
   6   1.0000     -24.660993      -671.0597
   7   1.0000     -24.660735      -671.0527
   8   1.0000     -24.660041      -671.0338
   9   1.0000     -24.659634      -671.0228
  10   1.0000     -24.656228      -670.9301
  11   1.0000     -24.651870      -670.8115
  12   1.0000     -24.651336      -670.7969
  13   1.0000     -24.649561      -670.7487
  14   1.0000     -19.133576      -520.6511
  15   1.0000     -19.080053      -519.1946
  16   1.0000     -10.346801      -281.5508
  17   1.0000     -10.346405      -281.5400
  18   1.0000     -10.344424      -281.4861
  19   1.0000     -10.342470      -281.4329
  20   1.0000     -10.341105      -281.3958
  21   1.0000     -10.333110      -281.1782
  22   1.0000     -10.315860      -280.7088
  23   1.0000     -10.281158      -279.7645
  24   1.0000      -1.306127       -35.5415
  25   1.0000      -1.296755       -35.2865
  26   1.0000      -1.289575       -35.0911
  27   1.0000      -1.280217       -34.8365
  28   1.0000      -1.278601       -34.7925
  29   1.0000      -1.271552       -34.6007
  30   1.0000      -1.271230       -34.5919
  31   1.0000      -1.238137       -33.6914
  32   1.0000      -1.234219       -33.5848
  33   1.0000      -1.231094       -33.4998
  34   1.0000      -1.225338       -33.3431
  35   1.0000      -1.222760       -33.2730
  36   1.0000      -1.217112       -33.1193
  37   1.0000      -1.215580       -33.0776
  38   1.0000      -1.119543       -30.4643
  39   1.0000      -1.035754       -28.1843
  40   1.0000      -0.829367       -22.5682
  41   1.0000      -0.814170       -22.1547
  42   1.0000      -0.790094       -21.4995
  43   1.0000      -0.754982       -20.5441
  44   1.0000      -0.711081       -19.3495
  45   1.0000      -0.670345       -18.2410
  46   1.0000      -0.653944       -17.7947
  47   1.0000      -0.642812       -17.4918
  48   1.0000      -0.620665       -16.8891
  49   1.0000      -0.619007       -16.8440
  50   1.0000      -0.609064       -16.5735
  51   1.0000      -0.601776       -16.3752
  52   1.0000      -0.596927       -16.2432
  53   1.0000      -0.594987       -16.1904
  54   1.0000      -0.584456       -15.9038
  55   1.0000      -0.579599       -15.7717
  56   1.0000      -0.576218       -15.6797
  57   1.0000      -0.572783       -15.5862
  58   1.0000      -0.563013       -15.3204
  59   1.0000      -0.561680       -15.2841
  60   1.0000      -0.555105       -15.1052
  61   1.0000      -0.546497       -14.8709
  62   1.0000      -0.528895       -14.3920
  63   1.0000      -0.498094       -13.5538
  64   1.0000      -0.487732       -13.2719
  65   1.0000      -0.486101       -13.2275
  66   1.0000      -0.478672       -13.0253
  67   1.0000      -0.476846       -12.9756
  68   1.0000      -0.473047       -12.8723
  69   1.0000      -0.466627       -12.6976
  70   1.0000      -0.462595       -12.5879
  71   1.0000      -0.459424       -12.5016
  72   1.0000      -0.458681       -12.4813
  73   1.0000      -0.456232       -12.4147
  74   1.0000      -0.452129       -12.3030
  75   1.0000      -0.449808       -12.2399
  76   1.0000      -0.445278       -12.1166
  77   1.0000      -0.440461       -11.9855
  78   1.0000      -0.436246       -11.8708
  79   1.0000      -0.432823       -11.7777
  80   1.0000      -0.428157       -11.6507
  81   1.0000      -0.427559       -11.6345
  82   1.0000      -0.424401       -11.5485
  83   1.0000      -0.422553       -11.4983
  84   1.0000      -0.420057       -11.4303
  85   1.0000      -0.418597       -11.3906
  86   1.0000      -0.415457       -11.3052
  87   1.0000      -0.414209       -11.2712
  88   1.0000      -0.412156       -11.2153
  89   1.0000      -0.406281       -11.0555
  90   1.0000      -0.390953       -10.6384
  91   1.0000      -0.363726        -9.8975
  92   1.0000      -0.340513        -9.2658
  93   1.0000      -0.331674        -9.0253
  94   1.0000      -0.296254        -8.0615
  95   1.0000      -0.250713        -6.8222
  96   0.0000      -0.066641        -1.8134
  97   0.0000      -0.021071        -0.5734
  98   0.0000      -0.006569        -0.1788
  99   0.0000       0.018704         0.5090
 100   0.0000       0.030654         0.8341

                 SPIN DOWN ORBITALS
  NO   OCC          E(Eh)            E(eV)
   0   1.0000     -24.662914      -671.1120
   1   1.0000     -24.662005      -671.0873
   2   1.0000     -24.661707      -671.0792
   3   1.0000     -24.661551      -671.0749
   4   1.0000     -24.661218      -671.0659
   5   1.0000     -24.661022      -671.0605
   6   1.0000     -24.660993      -671.0597
   7   1.0000     -24.660532      -671.0472
   8   1.0000     -24.660041      -671.0338
   9   1.0000     -24.659634      -671.0228
  10   1.0000     -24.656253      -670.9308
  11   1.0000     -24.651336      -670.7969
  12   1.0000     -24.650341      -670.7699
  13   1.0000     -24.649561      -670.7487
  14   1.0000     -19.133576      -520.6511
  15   1.0000     -19.080054      -519.1947
  16   1.0000     -10.346819      -281.5513
  17   1.0000     -10.346413      -281.5402
  18   1.0000     -10.344513      -281.4885
  19   1.0000     -10.342472      -281.4330
  20   1.0000     -10.340249      -281.3725
  21   1.0000     -10.333111      -281.1782
  22   1.0000     -10.299568      -280.2655
  23   1.0000     -10.281159      -279.7645
  24   1.0000      -1.305838       -35.5337
  25   1.0000      -1.294365       -35.2215
  26   1.0000      -1.285730       -34.9865
  27   1.0000      -1.279152       -34.8075
  28   1.0000      -1.278561       -34.7914
  29   1.0000      -1.271340       -34.5949
  30   1.0000      -1.269355       -34.5409
  31   1.0000      -1.238010       -33.6880
  32   1.0000      -1.231264       -33.5044
  33   1.0000      -1.227637       -33.4057
  34   1.0000      -1.225071       -33.3359
  35   1.0000      -1.222730       -33.2722
  36   1.0000      -1.215581       -33.0776
  37   1.0000      -1.215394       -33.0726
  38   1.0000      -1.119543       -30.4643
  39   1.0000      -1.035754       -28.1843
  40   1.0000      -0.828643       -22.5485
  41   1.0000      -0.811774       -22.0895
  42   1.0000      -0.786466       -21.4008
  43   1.0000      -0.750641       -20.4260
  44   1.0000      -0.706627       -19.2283
  45   1.0000      -0.666846       -18.1458
  46   1.0000      -0.650340       -17.6967
  47   1.0000      -0.642681       -17.4883
  48   1.0000      -0.620049       -16.8724
  49   1.0000      -0.617454       -16.8018
  50   1.0000      -0.608670       -16.5628
  51   1.0000      -0.600318       -16.3355
  52   1.0000      -0.595441       -16.2028
  53   1.0000      -0.593204       -16.1419
  54   1.0000      -0.582238       -15.8435
  55   1.0000      -0.578418       -15.7396
  56   1.0000      -0.573084       -15.5944
  57   1.0000      -0.570294       -15.5185
  58   1.0000      -0.561189       -15.2707
  59   1.0000      -0.559710       -15.2305
  60   1.0000      -0.553542       -15.0627
  61   1.0000      -0.546373       -14.8676
  62   1.0000      -0.499583       -13.5944
  63   1.0000      -0.498088       -13.5537
  64   1.0000      -0.487024       -13.2526
  65   1.0000      -0.485932       -13.2229
  66   1.0000      -0.476963       -12.9788
  67   1.0000      -0.476458       -12.9651
  68   1.0000      -0.472221       -12.8498
  69   1.0000      -0.466048       -12.6818
  70   1.0000      -0.462059       -12.5733
  71   1.0000      -0.459152       -12.4942
  72   1.0000      -0.457613       -12.4523
  73   1.0000      -0.453781       -12.3480
  74   1.0000      -0.449543       -12.2327
  75   1.0000      -0.444982       -12.1086
  76   1.0000      -0.440423       -11.9845
  77   1.0000      -0.438688       -11.9373
  78   1.0000      -0.434223       -11.8158
  79   1.0000      -0.432698       -11.7743
  80   1.0000      -0.427520       -11.6334
  81   1.0000      -0.425612       -11.5815
  82   1.0000      -0.424298       -11.5457
  83   1.0000      -0.421525       -11.4703
  84   1.0000      -0.419912       -11.4264
  85   1.0000      -0.417458       -11.3596
  86   1.0000      -0.414998       -11.2927
  87   1.0000      -0.413671       -11.2566
  88   1.0000      -0.411523       -11.1981
  89   1.0000      -0.405514       -11.0346
  90   1.0000      -0.389495       -10.5987
  91   1.0000      -0.361809        -9.8453
  92   1.0000      -0.340468        -9.2646
  93   1.0000      -0.330234        -8.9861
  94   1.0000      -0.296210        -8.0603
  95   0.0000      -0.110960        -3.0194
  96   0.0000      -0.066540        -1.8106
  97   0.0000      -0.018986        -0.5166
  98   0.0000      -0.004534        -0.1234
  99   0.0000       0.021981         0.5981

MULLIKEN ATOMIC CHARGES AND SPIN POPULATIONS
--------------------------------------------
   0 C :    0.222989   -0.000008
   1 O :   -0.337996   -0.000001
   2 O :   -0.287687   -0.000005
   3 C :    0.376532   -0.000025
   4 C :    0.266498   -0.000084
   5 C :    0.290591   -0.000283
   6 C :    0.299446   -0.000648
   7 C :    0.281263   -0.007024
   8 C :    0.346409    0.012951
   9 C :    0.231741    0.835554
  10 F :   -0.158752    0.000001
  11 F :   -0.154469   -0.000001
  12 F :   -0.151793    0.000003
  13 F :   -0.153296   -0.000004
  14 F :   -0.148753    0.000011
  15 F :   -0.147144   -0.000010
  16 F :   -0.147247    0.000028
  17 F :   -0.148089   -0.000032
  18 F :   -0.150751    0.000638
  19 F :   -0.148580    0.002233
  20 F :   -0.152996   -0.001447
  21 F :   -0.158081    0.031424
  22 F :   -0.127426    0.062993
  23 F :   -0.125021    0.063738
  24 H :    0.382613   -0.000001
Sum of atomic charges         :   -0.0000000

LOEWDIN ATOMIC CHARGES AND SPIN POPULATIONS
-------------------------------------------
   0 C :   -0.491152   -0.000006
   1 O :    0.157090   -0.000001
   2 O :    0.136352   -0.000004
   3 C :   -0.452453   -0.000023
   4 C :   -0.455627   -0.000070
   5 C :   -0.458868   -0.000225
   6 C :   -0.458880   -0.000701
   7 C :   -0.456049   -0.000574
   8 C :   -0.490453    0.075813
   9 C :   -0.391157    0.709397
  10 F :    0.210843    0.000001
  11 F :    0.216632   -0.000002
  12 F :    0.226277    0.000005
  13 F :    0.223547   -0.000004
  14 F :    0.226359    0.000056
  15 F :    0.228224   -0.000008
  16 F :    0.228178    0.000163
  17 F :    0.227009   -0.000035
  18 F :    0.225031    0.000594
  19 F :    0.228253    0.004955
  20 F :    0.219176   -0.000088
  21 F :    0.199578    0.032815
  22 F :    0.233263    0.088593
  23 F :    0.234822    0.089348
  24 H :    0.234004   -0.000000

  Mayer bond orders larger than 0.100000
B(  0-C ,  1-O ) :   1.3150 B(  0-C ,  2-O ) :   2.0731 B(  0-C ,  3-C ) :   0.9057
B(  1-O , 24-H ) :   0.8193 B(  3-C ,  4-C ) :   0.9586 B(  3-C , 10-F ) :   1.1000
B(  3-C , 11-F ) :   1.1190 B(  4-C ,  5-C ) :   0.9503 B(  4-C , 12-F ) :   1.0950
B(  4-C , 13-F ) :   1.0893 B(  5-C ,  6-C ) :   0.9526 B(  5-C , 14-F ) :   1.0960
B(  5-C , 15-F ) :   1.0977 B(  6-C ,  7-C ) :   0.9499 B(  6-C , 16-F ) :   1.0989
B(  6-C , 17-F ) :   1.0957 B(  7-C ,  8-C ) :   0.9430 B(  7-C , 18-F ) :   1.0932
B(  7-C , 19-F ) :   1.0955 B(  8-C ,  9-C ) :   0.9743 B(  8-C , 20-F ) :   1.0910
B(  8-C , 21-F ) :   1.0835 B(  9-C , 22-F ) :   1.1502 B(  9-C , 23-F ) :   1.1515

Dispersion correction           -0.030017516
FINAL SINGLE POINT ENERGY     -1854.390098931432

DIPOLE MOMENT
-------------

Method             : SCF
Type of density    : Electron Density
Multiplicity       :   2
Irrep              :   0
Energy             : -1854.3600814149688176 Eh
Relativity type    :
Basis              : AO
                                X                 Y                 Z
Electronic contribution:    -13.583044948      -0.272326467       2.062718544
Nuclear contribution   :     14.133193424      -0.220747403      -3.059674621
                        -----------------------------------------
Total Dipole Moment    :      0.550148476      -0.493073870      -0.996956076
                        -----------------------------------------
Magnitude (a.u.)       :      1.240849147
Magnitude (Debye)      :      3.153987880

VIBRATIONAL FREQUENCIES
-----------------------

Scaling factor for frequencies =  1.000000000  (already applied!)

     0:       0.00 cm**-1
     1:       0.00 cm**-1
     2:       0.00 cm**-1
     3:       0.00 cm**-1
     4:       0.00 cm**-1
     5:       0.00 cm**-1
     6:      13.65 cm**-1
     7:      31.79 cm**-1
     8:      39.87 cm**-1
     9:      43.85 cm**-1
    10:      52.77 cm**-1
    11:      61.00 cm**-1
    12:      61.92 cm**-1
    13:      70.85 cm**-1
    14:     111.12 cm**-1
    15:     132.58 cm**-1
    16:     151.27 cm**-1
    17:     176.99 cm**-1
    18:     191.24 cm**-1
    19:     195.75 cm**-1
    20:     198.45 cm**-1
    21:     216.19 cm**-1
    22:     230.11 cm**-1
    23:     241.92 cm**-1
    24:     246.97 cm**-1
    25:     252.33 cm**-1
    26:     282.08 cm**-1
    27:     299.17 cm**-1
    28:     309.98 cm**-1
    29:     329.56 cm**-1
    30:     347.64 cm**-1
    31:     356.77 cm**-1
    32:     360.61 cm**-1
    33:     365.72 cm**-1
    34:     367.18 cm**-1
    35:     405.26 cm**-1
    36:     450.72 cm**-1
    37:     506.60 cm**-1
    38:     506.76 cm**-1
    39:     537.86 cm**-1
    40:     548.05 cm**-1
    41:     562.05 cm**-1
    42:     573.66 cm**-1
    43:     595.42 cm**-1
    44:     605.46 cm**-1
    45:     629.72 cm**-1
    46:     633.32 cm**-1
    47:     670.21 cm**-1
    48:     698.91 cm**-1
    49:     709.34 cm**-1
    50:     749.80 cm**-1
    51:     764.41 cm**-1
    52:     862.01 cm**-1
    53:     998.47 cm**-1
    54:    1054.08 cm**-1
    55:    1094.88 cm**-1
    56:    1115.12 cm**-1
    57:    1123.26 cm**-1
    58:    1125.71 cm**-1
    59:    1133.48 cm**-1
    60:    1136.43 cm**-1
    61:    1140.75 cm**-1
    62:    1146.89 cm**-1
    63:    1161.74 cm**-1
    64:    1176.24 cm**-1
    65:    1184.08 cm**-1
    66:    1212.33 cm**-1
    67:    1234.10 cm**-1
    68:    1246.56 cm**-1
    69:    1265.47 cm**-1
    70:    1304.60 cm**-1
    71:    1348.04 cm**-1
    72:    1392.05 cm**-1
    73:    1808.52 cm**-1
    74:    3604.84 cm**-1

IR SPECTRUM
-----------

 Mode   freq       eps      Int      T**2         TX        TY        TZ
       cm**-1   L/(mol*cm) km/mol    a.u.
----------------------------------------------------------------------------
  6:     13.65   0.000286    1.45  0.006547  ( 0.012924  0.077651 -0.018714)
  7:     31.79   0.000101    0.51  0.000993  (-0.017886  0.009811 -0.024017)
  8:     39.87   0.000007    0.03  0.000053  (-0.002433 -0.004744  0.004923)
  9:     43.85   0.000115    0.58  0.000817  ( 0.013975 -0.016683  0.018524)
 10:     52.77   0.000296    1.49  0.001749  ( 0.023297 -0.018339  0.029494)
 11:     61.00   0.000163    0.82  0.000832  ( 0.021628 -0.004469  0.018559)
 12:     61.92   0.000029    0.15  0.000146  ( 0.008378  0.004798  0.007251)
 13:     70.85   0.000105    0.53  0.000461  ( 0.018332  0.009709  0.005507)
 14:    111.12   0.000154    0.78  0.000432  (-0.014209  0.015034  0.001900)
 15:    132.58   0.000020    0.10  0.000047  ( 0.004237  0.000717  0.005342)
 16:    151.27   0.000084    0.42  0.000172  ( 0.012453 -0.000568  0.004109)
 17:    176.99   0.003054   15.43  0.005385  (-0.002213  0.004022  0.073239)
 18:    191.24   0.000170    0.86  0.000278  (-0.014859  0.007075  0.002594)
 19:    195.75   0.000342    1.73  0.000546  (-0.008973 -0.021566  0.000039)
 20:    198.45   0.000216    1.09  0.000340  (-0.004086  0.014742 -0.010291)
 21:    216.19   0.000226    1.14  0.000326  ( 0.015849 -0.000833 -0.008608)
 22:    230.11   0.000024    0.12  0.000033  ( 0.001858 -0.004673  0.002798)
 23:    241.92   0.000064    0.32  0.000082  (-0.004609 -0.005197  0.005804)
 24:    246.97   0.000014    0.07  0.000018  ( 0.001515  0.003899 -0.000336)
 25:    252.33   0.000424    2.14  0.000524  ( 0.021225  0.007086 -0.004809)
 26:    282.08   0.001958    9.89  0.002166  (-0.043543  0.016412 -0.000679)
 27:    299.17   0.000201    1.02  0.000210  (-0.012909  0.003390  0.005629)
 28:    309.98   0.000111    0.56  0.000112  ( 0.003150 -0.004493  0.009039)
 29:    329.56   0.000035    0.17  0.000033  ( 0.001936  0.002791  0.004605)
 30:    347.64   0.000128    0.65  0.000115  ( 0.006218  0.007560  0.004378)
 31:    356.77   0.000184    0.93  0.000161  (-0.005526 -0.008362 -0.007764)
 32:    360.61   0.000324    1.64  0.000280  (-0.009830  0.011647  0.006935)
 33:    365.72   0.000064    0.32  0.000054  ( 0.005282 -0.003912 -0.003322)
 34:    367.18   0.000988    4.99  0.000839  (-0.026189 -0.012142 -0.002468)
 35:    405.26   0.000504    2.55  0.000388  ( 0.019288  0.003560 -0.001767)
 36:    450.72   0.002044   10.33  0.001415  ( 0.032940 -0.011750 -0.013868)
 37:    506.60   0.008579   43.35  0.005285  ( 0.071100  0.008724 -0.012384)
 38:    506.76   0.005000   25.27  0.003079  (-0.053059  0.002227  0.016093)
 39:    537.86   0.012811   64.74  0.007433  ( 0.081260  0.027571 -0.008349)
 40:    548.05   0.006248   31.57  0.003558  ( 0.030024 -0.051311  0.004834)
 41:    562.05   0.004866   24.59  0.002702  ( 0.013152  0.011368 -0.048983)
 42:    573.66   0.006782   34.28  0.003690  (-0.058238  0.016592 -0.004749)
 43:    595.42   0.006116   30.91  0.003205  (-0.000719 -0.020576  0.052738)
 44:    605.46   0.001153    5.83  0.000594  (-0.019084 -0.002598  0.014948)
 45:    629.72   0.054606  275.95  0.027060  (-0.154753  0.054691 -0.010995)
 46:    633.32   0.014913   75.37  0.007349  (-0.058064  0.028147 -0.056435)
 47:    670.21   0.002133   10.78  0.000993  (-0.003503 -0.020236  0.023907)
 48:    698.91   0.010206   51.57  0.004557  (-0.058211 -0.012001 -0.032003)
 49:    709.34   0.002534   12.81  0.001115  ( 0.030810  0.007971 -0.010097)
 50:    749.80   0.000855    4.32  0.000356  (-0.017062 -0.005469  0.005895)
 51:    764.41   0.008601   43.47  0.003511  ( 0.029404  0.016847 -0.048610)
 52:    862.01   0.001982   10.02  0.000718  (-0.025786  0.007230 -0.000667)
 53:    998.47   0.014281   72.17  0.004463  (-0.064943  0.004274 -0.015087)
 54:   1054.08   0.042614  215.36  0.012616  (-0.007361 -0.042991 -0.103507)
 55:   1094.88   0.007088   35.82  0.002020  (-0.009105 -0.011432  0.042503)
 56:   1115.12   0.008387   42.38  0.002347  (-0.018174  0.039160  0.021982)
 57:   1123.26   0.028950  146.30  0.008043  (-0.013479  0.023599  0.085465)
 58:   1125.71   0.105289  532.09  0.029188  (-0.027402 -0.156036  0.063949)
 59:   1133.48   0.025727  130.01  0.007083  ( 0.012806  0.074634 -0.036727)
 60:   1136.43   0.064585  326.39  0.017735  ( 0.006772 -0.132245  0.014157)
 61:   1140.75   0.008230   41.59  0.002251  (-0.006634 -0.028147 -0.037616)
 62:   1146.89   0.258349  1305.59  0.070296  (-0.006933  0.086723  0.250454)
 63:   1161.74   0.002954   14.93  0.000793  ( 0.000981 -0.028069 -0.002148)
 64:   1176.24   0.007506   37.93  0.001991  (-0.034845  0.018474 -0.020877)
 65:   1184.08   0.004479   22.64  0.001180  ( 0.014017  0.025626 -0.018093)
 66:   1212.33   0.051597  260.75  0.013281  (-0.024004  0.104029 -0.043397)
 67:   1234.10   0.017802   89.96  0.004502  (-0.042212  0.050434 -0.013270)
 68:   1246.56   0.012564   63.49  0.003145  (-0.000738 -0.055562  0.007594)
 69:   1265.47   0.003752   18.96  0.000925  ( 0.018238 -0.018438 -0.015898)
 70:   1304.60   0.003414   17.25  0.000817  (-0.012630  0.025505 -0.002579)
 71:   1348.04   0.021648  109.40  0.005011  (-0.061867  0.008328  0.033383)
 72:   1392.05   0.014511   73.33  0.003253  ( 0.041903 -0.029104 -0.025496)
 73:   1808.52   0.091380  461.80  0.015768  ( 0.042038  0.101450  0.060898)
 74:   3604.84   0.048016  242.65  0.004157  (-0.050340 -0.002936  0.040173)

--------------------------
THERMOCHEMISTRY AT 298.15K
--------------------------

Temperature         ...   298.15 K
Pressure            ...     1.00 atm
Total Mass          ...   395.07 AMU
Quasi RRHO          ...     True
Cut-Off Frequency   ...     1.00 cm^-1

Throughout the following assumptions are being made:
  (1) The electronic state is orbitally nondegenerate
      but the spin degeneracy is treated
  (2) There are no thermally accessible electronically excited states
  (3) Hindered rotations indicated by low frequency modes are not
      treated as such but are treated as vibrations and this may
      cause some error
  (4) All equations used are the standard statistical mechanics
      equations for an ideal gas
  (5) All vibrations are strictly harmonic

freq.      13.65  E(vib)   ...       0.57
freq.      31.79  E(vib)   ...       0.55
freq.      39.87  E(vib)   ...       0.54
freq.      43.85  E(vib)   ...       0.53
freq.      52.77  E(vib)   ...       0.52
freq.      61.00  E(vib)   ...       0.51
freq.      61.92  E(vib)   ...       0.51
freq.      70.85  E(vib)   ...       0.50
freq.     111.12  E(vib)   ...       0.45
freq.     132.58  E(vib)   ...       0.42
freq.     151.27  E(vib)   ...       0.40
freq.     176.99  E(vib)   ...       0.38
freq.     191.24  E(vib)   ...       0.36
freq.     195.75  E(vib)   ...       0.36
freq.     198.45  E(vib)   ...       0.35
freq.     216.19  E(vib)   ...       0.34
freq.     230.11  E(vib)   ...       0.32
freq.     241.92  E(vib)   ...       0.31
freq.     246.97  E(vib)   ...       0.31
freq.     252.33  E(vib)   ...       0.30
freq.     282.08  E(vib)   ...       0.28
freq.     299.17  E(vib)   ...       0.26
freq.     309.98  E(vib)   ...       0.26
freq.     329.56  E(vib)   ...       0.24
freq.     347.64  E(vib)   ...       0.23
freq.     356.77  E(vib)   ...       0.22
freq.     360.61  E(vib)   ...       0.22
freq.     365.72  E(vib)   ...       0.22
freq.     367.18  E(vib)   ...       0.22
freq.     405.26  E(vib)   ...       0.19
freq.     450.72  E(vib)   ...       0.17
freq.     506.60  E(vib)   ...       0.14
freq.     506.76  E(vib)   ...       0.14
freq.     537.86  E(vib)   ...       0.12
freq.     548.05  E(vib)   ...       0.12
freq.     562.05  E(vib)   ...       0.11
freq.     573.66  E(vib)   ...       0.11
freq.     595.42  E(vib)   ...       0.10
freq.     605.46  E(vib)   ...       0.10
freq.     629.72  E(vib)   ...       0.09
freq.     633.32  E(vib)   ...       0.09
freq.     670.21  E(vib)   ...       0.08
freq.     698.91  E(vib)   ...       0.07
freq.     709.34  E(vib)   ...       0.07
freq.     749.80  E(vib)   ...       0.06
freq.     764.41  E(vib)   ...       0.06
freq.     862.01  E(vib)   ...       0.04
freq.     998.47  E(vib)   ...       0.02
freq.    1054.08  E(vib)   ...       0.02
freq.    1094.88  E(vib)   ...       0.02
freq.    1115.12  E(vib)   ...       0.01
freq.    1123.26  E(vib)   ...       0.01
freq.    1125.71  E(vib)   ...       0.01
freq.    1133.48  E(vib)   ...       0.01
freq.    1136.43  E(vib)   ...       0.01
freq.    1140.75  E(vib)   ...       0.01
freq.    1146.89  E(vib)   ...       0.01
freq.    1161.74  E(vib)   ...       0.01
freq.    1176.24  E(vib)   ...       0.01
freq.    1184.08  E(vib)   ...       0.01
freq.    1212.33  E(vib)   ...       0.01
freq.    1234.10  E(vib)   ...       0.01
freq.    1246.56  E(vib)   ...       0.01
freq.    1265.47  E(vib)   ...       0.01
freq.    1304.60  E(vib)   ...       0.01
freq.    1348.04  E(vib)   ...       0.01
freq.    1392.05  E(vib)   ...       0.00
freq.    1808.52  E(vib)   ...       0.00
freq.    3604.84  E(vib)   ...       0.00

------------
INNER ENERGY
------------

The inner energy is: U= E(el) + E(ZPE) + E(vib) + E(rot) + E(trans)
    E(el)   - is the total energy from the electronic structure calculation
              = E(kin-el) + E(nuc-el) + E(el-el) + E(nuc-nuc)
    E(ZPE)  - the the zero temperature vibrational energy from the frequency calculation
    E(vib)  - the the finite temperature correction to E(ZPE) due to population
              of excited vibrational states
    E(rot)  - is the rotational thermal energy
    E(trans)- is the translational thermal energy

Summary of contributions to the inner energy U:
Electronic energy                ...  -1854.39009893 Eh
Zero point energy                ...      0.10424103 Eh      65.41 kcal/mol
Thermal vibrational correction   ...      0.02034026 Eh      12.76 kcal/mol
Thermal rotational correction    ...      0.00141627 Eh       0.89 kcal/mol
Thermal translational correction ...      0.00141627 Eh       0.89 kcal/mol
-----------------------------------------------------------------------
Total thermal energy                  -1854.26268510 Eh

Summary of corrections to the electronic energy:
(perhaps to be used in another calculation)
Total thermal correction                  0.02317281 Eh      14.54 kcal/mol
Non-thermal (ZPE) correction              0.10424103 Eh      65.41 kcal/mol
-----------------------------------------------------------------------
Total correction                          0.12741383 Eh      79.95 kcal/mol

--------
ENTHALPY
--------

The enthalpy is H = U + kB*T
                kB is Boltzmann's constant
Total thermal energy              ...  -1854.26268510 Eh
Thermal Enthalpy correction       ...      0.00094421 Eh       0.59 kcal/mol
-----------------------------------------------------------------------
Total Enthalpy                    ...  -1854.26174089 Eh

Note: Only C1 symmetry has been detected, increase convergence thresholds
      if your molecule has a higher symmetry. Symmetry factor of 1.0 is
      used for the rotational entropy correction.

Note: Rotational entropy computed according to Herzberg
Infrared and Raman Spectra, Chapter V,1, Van Nostrand Reinhold, 1945
Point Group:  C1, Symmetry Number:   1
Rotational constants in cm-1:     0.022591     0.004059     0.003967

Vibrational entropy computed according to the QRRHO of S. Grimme
Chem.Eur.J. 2012 18 9955 using a reference frequency of 100.0 cm-1

-------
ENTROPY
-------

The entropy contributions are T*S = T*(S(el)+S(vib)+S(rot)+S(trans))
     S(el)   - electronic entropy
     S(vib)  - vibrational entropy
     S(rot)  - rotational entropy
     S(trans)- translational entropy
The entropies will be listed as multiplied by the temperature to get
units of energy

Electronic entropy                ...      0.00065446 Eh      0.41 kcal/mol
Vibrational entropy               ...      0.03680947 Eh     23.10 kcal/mol

                             ****ORCA TERMINATED NORMALLY****
TOTAL RUN TIME: 0 days 0 hours 21 minutes 20 seconds 471 msec
