                         Program Version 6.0.1  -  RELEASE   -
|  1> !TPSSh def2-TZVP freq d3 TightSCF SlowConv defgrid2
|  2>
|  3> %pal
|  4> nprocs 20
|  5> end
|  6>
|  7> %scf
|  8> MaxIter 1500
|  9> end
| 10>
| 11> %maxcore 8000
| 12>
| 13> !CPCM
| 14> %cpcm smd true
| 15> SMDsolvent "ACETONITRILE"
| 16> end
| 17>
| 18> * xyz 0 2
| 19> 6        4.749773000     -0.145042000     -0.310655000
| 20> 8        5.662493000     -1.094264000     -0.060904000
| 21> 8        4.991290000      1.019830000     -0.560579000
| 22> 6        3.391774000     -0.666202000     -0.258324000
| 23> 6        2.170161000      0.172723000     -0.516052000
| 24> 6        0.839979000     -0.536882000     -0.101792000
| 25> 6       -0.407070000      0.415631000     -0.063728000
| 26> 6       -1.769911000     -0.359583000     -0.106552000
| 27> 6       -2.986452000      0.495052000      0.387335000
| 28> 6       -4.378145000     -0.056373000     -0.063888000
| 29> 9        3.201294000     -1.967893000     -0.118289000
| 30> 9        2.250840000      1.342543000      0.168637000
| 31> 9        2.091464000      0.485664000     -1.843220000
| 32> 9        0.598342000     -1.541943000     -0.972889000
| 33> 9        0.998798000     -1.058645000      1.134617000
| 34> 9       -0.355923000      1.143062000      1.072895000
| 35> 9       -0.367880000      1.258839000     -1.115923000
| 36> 9       -1.683214000     -1.457029000      0.675464000
| 37> 9       -1.999364000     -0.754887000     -1.376983000
| 38> 9       -2.877543000      1.757225000     -0.080813000
| 39> 9       -2.973457000      0.529377000      1.734610000
| 40> 9       -4.473740000     -1.365794000      0.188282000
| 41> 9       -5.336367000      0.582235000      0.614100000
| 42> 9       -4.571635000      0.149906000     -1.368096000
| 43> 1        6.547963000     -0.684055000     -0.119377000
| 44> *
| 45>
| 46>                          ****END OF INPUT****

CARTESIAN COORDINATES (ANGSTROEM)
---------------------------------
  C      4.749773   -0.145042   -0.310655
  O      5.662493   -1.094264   -0.060904
  O      4.991290    1.019830   -0.560579
  C      3.391774   -0.666202   -0.258324
  C      2.170161    0.172723   -0.516052
  C      0.839979   -0.536882   -0.101792
  C     -0.407070    0.415631   -0.063728
  C     -1.769911   -0.359583   -0.106552
  C     -2.986452    0.495052    0.387335
  C     -4.378145   -0.056373   -0.063888
  F      3.201294   -1.967893   -0.118289
  F      2.250840    1.342543    0.168637
  F      2.091464    0.485664   -1.843220
  F      0.598342   -1.541943   -0.972889
  F      0.998798   -1.058645    1.134617
  F     -0.355923    1.143062    1.072895
  F     -0.367880    1.258839   -1.115923
  F     -1.683214   -1.457029    0.675464
  F     -1.999364   -0.754887   -1.376983
  F     -2.877543    1.757225   -0.080813
  F     -2.973457    0.529377    1.734610
  F     -4.473740   -1.365794    0.188282
  F     -5.336367    0.582235    0.614100
  F     -4.571635    0.149906   -1.368096
  H      6.547963   -0.684055   -0.119377

 Total Charge           Charge          ....    0
 Multiplicity           Mult            ....    2
 Number of Electrons    NEL             ....  191
 Basis Dimension        Dim             ....  750

ORBITAL ENERGIES
----------------
                 SPIN UP ORBITALS
  NO   OCC          E(Eh)            E(eV)
   0   1.0000     -24.670988      -671.3317
   1   1.0000     -24.662549      -671.1021
   2   1.0000     -24.662464      -671.0998
   3   1.0000     -24.662410      -671.0983
   4   1.0000     -24.661823      -671.0823
   5   1.0000     -24.661333      -671.0690
   6   1.0000     -24.661283      -671.0676
   7   1.0000     -24.661134      -671.0636
   8   1.0000     -24.660829      -671.0553
   9   1.0000     -24.660618      -671.0495
  10   1.0000     -24.660460      -671.0452
  11   1.0000     -24.659466      -671.0182
  12   1.0000     -24.651194      -670.7931
  13   1.0000     -24.647998      -670.7061
  14   1.0000     -19.118892      -520.2515
  15   1.0000     -19.068912      -518.8915
  16   1.0000     -10.397275      -282.9242
  17   1.0000     -10.347621      -281.5731
  18   1.0000     -10.347006      -281.5564
  19   1.0000     -10.345878      -281.5257
  20   1.0000     -10.343843      -281.4703
  21   1.0000     -10.340122      -281.3690
  22   1.0000     -10.270692      -279.4797
  23   1.0000     -10.265001      -279.3249
  24   1.0000      -1.323830       -36.0232
  25   1.0000      -1.304093       -35.4862
  26   1.0000      -1.290011       -35.1030
  27   1.0000      -1.279884       -34.8274
  28   1.0000      -1.279322       -34.8121
  29   1.0000      -1.270335       -34.5676
  30   1.0000      -1.264375       -34.4054
  31   1.0000      -1.239923       -33.7400
  32   1.0000      -1.235025       -33.6067
  33   1.0000      -1.232976       -33.5510
  34   1.0000      -1.228888       -33.4397
  35   1.0000      -1.224236       -33.3132
  36   1.0000      -1.222881       -33.2763
  37   1.0000      -1.213203       -33.0129
  38   1.0000      -1.104932       -30.0667
  39   1.0000      -1.021301       -27.7910
  40   1.0000      -0.830570       -22.6010
  41   1.0000      -0.818075       -22.2610
  42   1.0000      -0.793008       -21.5789
  43   1.0000      -0.756640       -20.5892
  44   1.0000      -0.715596       -19.4724
  45   1.0000      -0.677995       -18.4492
  46   1.0000      -0.658741       -17.9253
  47   1.0000      -0.632633       -17.2148
  48   1.0000      -0.625957       -17.0332
  49   1.0000      -0.620592       -16.8872
  50   1.0000      -0.612587       -16.6693
  51   1.0000      -0.606166       -16.4946
  52   1.0000      -0.603245       -16.4151
  53   1.0000      -0.598395       -16.2831
  54   1.0000      -0.588674       -16.0186
  55   1.0000      -0.582885       -15.8611
  56   1.0000      -0.578830       -15.7508
  57   1.0000      -0.573967       -15.6184
  58   1.0000      -0.565247       -15.3811
  59   1.0000      -0.560959       -15.2645
  60   1.0000      -0.555024       -15.1030
  61   1.0000      -0.535991       -14.5850
  62   1.0000      -0.513578       -13.9752
  63   1.0000      -0.493412       -13.4264
  64   1.0000      -0.488821       -13.3015
  65   1.0000      -0.487277       -13.2595
  66   1.0000      -0.480376       -13.0717
  67   1.0000      -0.478250       -13.0138
  68   1.0000      -0.472653       -12.8615
  69   1.0000      -0.470758       -12.8100
  70   1.0000      -0.468427       -12.7465
  71   1.0000      -0.460819       -12.5395
  72   1.0000      -0.458119       -12.4660
  73   1.0000      -0.455956       -12.4072
  74   1.0000      -0.454419       -12.3654
  75   1.0000      -0.448813       -12.2128
  76   1.0000      -0.447147       -12.1675
  77   1.0000      -0.442463       -12.0400
  78   1.0000      -0.435894       -11.8613
  79   1.0000      -0.431778       -11.7493
  80   1.0000      -0.427854       -11.6425
  81   1.0000      -0.425561       -11.5801
  82   1.0000      -0.423475       -11.5233
  83   1.0000      -0.421289       -11.4639
  84   1.0000      -0.418853       -11.3976
  85   1.0000      -0.417735       -11.3671
  86   1.0000      -0.414004       -11.2656
  87   1.0000      -0.412639       -11.2285
  88   1.0000      -0.412184       -11.2161
  89   1.0000      -0.405890       -11.0448
  90   1.0000      -0.395101       -10.7512
  91   1.0000      -0.365628        -9.9492
  92   1.0000      -0.335579        -9.1316
  93   1.0000      -0.330513        -8.9937
  94   1.0000      -0.293156        -7.9772
  95   1.0000      -0.257782        -7.0146
  96   0.0000      -0.027748        -0.7551
  97   0.0000      -0.018657        -0.5077
  98   0.0000      -0.004087        -0.1112
  99   0.0000       0.023797         0.6476
 100   0.0000       0.034877         0.9491

                 SPIN DOWN ORBITALS
  NO   OCC          E(Eh)            E(eV)
   0   1.0000     -24.666643      -671.2135
   1   1.0000     -24.662549      -671.1021
   2   1.0000     -24.662464      -671.0998
   3   1.0000     -24.662410      -671.0983
   4   1.0000     -24.661823      -671.0823
   5   1.0000     -24.661333      -671.0690
   6   1.0000     -24.661283      -671.0676
   7   1.0000     -24.661131      -671.0635
   8   1.0000     -24.660829      -671.0553
   9   1.0000     -24.660618      -671.0495
  10   1.0000     -24.660417      -671.0441
  11   1.0000     -24.659426      -671.0171
  12   1.0000     -24.650625      -670.7776
  13   1.0000     -24.646648      -670.6694
  14   1.0000     -19.118443      -520.2393
  15   1.0000     -19.064609      -518.7744
  16   1.0000     -10.397275      -282.9242
  17   1.0000     -10.347624      -281.5732
  18   1.0000     -10.347018      -281.5567
  19   1.0000     -10.345879      -281.5257
  20   1.0000     -10.343837      -281.4701
  21   1.0000     -10.340779      -281.3869
  22   1.0000     -10.271867      -279.5117
  23   1.0000     -10.250958      -278.9427
  24   1.0000      -1.323830       -36.0232
  25   1.0000      -1.303971       -35.4829
  26   1.0000      -1.289608       -35.0920
  27   1.0000      -1.279687       -34.8220
  28   1.0000      -1.279140       -34.8072
  29   1.0000      -1.268620       -34.5209
  30   1.0000      -1.256772       -34.1985
  31   1.0000      -1.239911       -33.7397
  32   1.0000      -1.234969       -33.6052
  33   1.0000      -1.232974       -33.5509
  34   1.0000      -1.228791       -33.4371
  35   1.0000      -1.224186       -33.3118
  36   1.0000      -1.222848       -33.2754
  37   1.0000      -1.211196       -32.9583
  38   1.0000      -1.102664       -30.0050
  39   1.0000      -1.015749       -27.6399
  40   1.0000      -0.828919       -22.5560
  41   1.0000      -0.812270       -22.1030
  42   1.0000      -0.785982       -21.3877
  43   1.0000      -0.750207       -20.4142
  44   1.0000      -0.712905       -19.3991
  45   1.0000      -0.677317       -18.4307
  46   1.0000      -0.658489       -17.9184
  47   1.0000      -0.630220       -17.1492
  48   1.0000      -0.625761       -17.0278
  49   1.0000      -0.619416       -16.8552
  50   1.0000      -0.612511       -16.6673
  51   1.0000      -0.605658       -16.4808
  52   1.0000      -0.602428       -16.3929
  53   1.0000      -0.597481       -16.2583
  54   1.0000      -0.587560       -15.9883
  55   1.0000      -0.582007       -15.8372
  56   1.0000      -0.578144       -15.7321
  57   1.0000      -0.572093       -15.5675
  58   1.0000      -0.563019       -15.3205
  59   1.0000      -0.558876       -15.2078
  60   1.0000      -0.553382       -15.0583
  61   1.0000      -0.533470       -14.5165
  62   1.0000      -0.491732       -13.3807
  63   1.0000      -0.487844       -13.2749
  64   1.0000      -0.487204       -13.2575
  65   1.0000      -0.485885       -13.2216
  66   1.0000      -0.479673       -13.0526
  67   1.0000      -0.477368       -12.9898
  68   1.0000      -0.472422       -12.8552
  69   1.0000      -0.470594       -12.8055
  70   1.0000      -0.467170       -12.7123
  71   1.0000      -0.460438       -12.5292
  72   1.0000      -0.457621       -12.4525
  73   1.0000      -0.454501       -12.3676
  74   1.0000      -0.452762       -12.3203
  75   1.0000      -0.446575       -12.1519
  76   1.0000      -0.444343       -12.0912
  77   1.0000      -0.437134       -11.8950
  78   1.0000      -0.435889       -11.8611
  79   1.0000      -0.430329       -11.7098
  80   1.0000      -0.427619       -11.6361
  81   1.0000      -0.425503       -11.5785
  82   1.0000      -0.423365       -11.5203
  83   1.0000      -0.420876       -11.4526
  84   1.0000      -0.418658       -11.3923
  85   1.0000      -0.415301       -11.3009
  86   1.0000      -0.413771       -11.2593
  87   1.0000      -0.411638       -11.2012
  88   1.0000      -0.411330       -11.1929
  89   1.0000      -0.403591       -10.9823
  90   1.0000      -0.394127       -10.7247
  91   1.0000      -0.364521        -9.9191
  92   1.0000      -0.329657        -8.9704
  93   1.0000      -0.321695        -8.7538
  94   1.0000      -0.288933        -7.8623
  95   0.0000      -0.151269        -4.1162
  96   0.0000      -0.026239        -0.7140
  97   0.0000      -0.012206        -0.3321
  98   0.0000       0.005555         0.1512
  99   0.0000       0.027455         0.7471

MULLIKEN ATOMIC CHARGES AND SPIN POPULATIONS
--------------------------------------------
   0 C :    0.237523   -0.047683
   1 O :   -0.365584    0.017719
   2 O :   -0.322923    0.153614
   3 C :    0.180149    0.770789
   4 C :    0.347834   -0.006064
   5 C :    0.291884   -0.008420
   6 C :    0.299246   -0.000064
   7 C :    0.273614   -0.000149
   8 C :    0.295677   -0.000018
   9 C :    0.408542   -0.000010
  10 F :   -0.123324    0.085381
  11 F :   -0.153804    0.009686
  12 F :   -0.162042    0.025764
  13 F :   -0.151683    0.000914
  14 F :   -0.150586    0.000667
  15 F :   -0.147391   -0.000002
  16 F :   -0.146432    0.000006
  17 F :   -0.148000    0.000007
  18 F :   -0.147691   -0.000000
  19 F :   -0.146191   -0.000001
  20 F :   -0.143493    0.000000
  21 F :   -0.135366    0.000000
  22 F :   -0.132135   -0.000003
  23 F :   -0.133110   -0.000000
  24 H :    0.375288   -0.002131
Sum of atomic charges         :    0.0000000

LOEWDIN ATOMIC CHARGES AND SPIN POPULATIONS
-------------------------------------------
   0 C :   -0.519450    0.058869
   1 O :    0.128781    0.015104
   2 O :    0.106432    0.131525
   3 C :   -0.150225    0.594928
   4 C :   -0.461801    0.050152
   5 C :   -0.452611    0.000021
   6 C :   -0.458773   -0.000275
   7 C :   -0.460097   -0.000077
   8 C :   -0.465935   -0.000022
   9 C :   -0.668365   -0.000007
  10 F :    0.265864    0.106547
  11 F :    0.216015    0.012763
  12 F :    0.198229    0.029020
  13 F :    0.224721    0.001083
  14 F :    0.225624    0.001009
  15 F :    0.226693    0.000008
  16 F :    0.228614    0.000075
  17 F :    0.227590    0.000013
  18 F :    0.227339    0.000007
  19 F :    0.225381    0.000003
  20 F :    0.226988   -0.000000
  21 F :    0.226983    0.000001
  22 F :    0.227726   -0.000003
  23 F :    0.228518    0.000000
  24 H :    0.225760   -0.000742

  Mayer bond orders larger than 0.100000
B(  0-C ,  1-O ) :   1.2857 B(  0-C ,  2-O ) :   1.9698 B(  0-C ,  3-C ) :   1.1300
B(  1-O , 24-H ) :   0.8275 B(  3-C ,  4-C ) :   1.0307 B(  3-C , 10-F ) :   1.1272
B(  4-C ,  5-C ) :   0.9598 B(  4-C , 11-F ) :   1.0695 B(  4-C , 12-F ) :   1.0681
B(  5-C ,  6-C ) :   0.9620 B(  5-C , 13-F ) :   1.0826 B(  5-C , 14-F ) :   1.0963
B(  6-C ,  7-C ) :   0.9472 B(  6-C , 15-F ) :   1.1018 B(  6-C , 16-F ) :   1.1010
B(  7-C ,  8-C ) :   0.9423 B(  7-C , 17-F ) :   1.0964 B(  7-C , 18-F ) :   1.1015
B(  8-C ,  9-C ) :   0.9711 B(  8-C , 19-F ) :   1.1014 B(  8-C , 20-F ) :   1.1137
B(  9-C , 21-F ) :   1.1589 B(  9-C , 22-F ) :   1.1636 B(  9-C , 23-F ) :   1.1707

Dispersion correction           -0.029643895
FINAL SINGLE POINT ENERGY     -1854.415716877181

DIPOLE MOMENT
-------------

Method             : SCF
Type of density    : Electron Density
Multiplicity       :   2
Irrep              :   0
Energy             : -1854.3860729821835776 Eh
Relativity type    :
Basis              : AO
                                X                 Y                 Z
Electronic contribution:    -16.787534664      -0.102319290       0.549381211
Nuclear contribution   :     17.681352370      -0.634969166      -0.354424483
                        -----------------------------------------
Total Dipole Moment    :      0.893817706      -0.737288456       0.194956728
                        -----------------------------------------
Magnitude (a.u.)       :      1.174952120
Magnitude (Debye)      :      2.986490950

VIBRATIONAL FREQUENCIES
-----------------------

Scaling factor for frequencies =  1.000000000  (already applied!)

     0:       0.00 cm**-1
     1:       0.00 cm**-1
     2:       0.00 cm**-1
     3:       0.00 cm**-1
     4:       0.00 cm**-1
     5:       0.00 cm**-1
     6:      21.89 cm**-1
     7:      36.19 cm**-1
     8:      40.10 cm**-1
     9:      49.18 cm**-1
    10:      57.77 cm**-1
    11:      68.33 cm**-1
    12:      71.49 cm**-1
    13:      96.42 cm**-1
    14:     111.83 cm**-1
    15:     134.21 cm**-1
    16:     161.36 cm**-1
    17:     170.51 cm**-1
    18:     190.12 cm**-1
    19:     199.56 cm**-1
    20:     203.87 cm**-1
    21:     217.36 cm**-1
    22:     229.46 cm**-1
    23:     242.73 cm**-1
    24:     247.85 cm**-1
    25:     278.65 cm**-1
    26:     296.89 cm**-1
    27:     309.85 cm**-1
    28:     314.82 cm**-1
    29:     330.28 cm**-1
    30:     346.97 cm**-1
    31:     360.49 cm**-1
    32:     361.82 cm**-1
    33:     369.67 cm**-1
    34:     374.12 cm**-1
    35:     413.42 cm**-1
    36:     466.69 cm**-1
    37:     508.16 cm**-1
    38:     520.42 cm**-1
    39:     524.23 cm**-1
    40:     546.16 cm**-1
    41:     554.69 cm**-1
    42:     561.77 cm**-1
    43:     577.85 cm**-1
    44:     597.08 cm**-1
    45:     618.38 cm**-1
    46:     640.02 cm**-1
    47:     684.25 cm**-1
    48:     692.31 cm**-1
    49:     707.60 cm**-1
    50:     715.59 cm**-1
    51:     747.34 cm**-1
    52:     858.05 cm**-1
    53:    1000.90 cm**-1
    54:    1053.81 cm**-1
    55:    1090.77 cm**-1
    56:    1106.68 cm**-1
    57:    1122.71 cm**-1
    58:    1129.11 cm**-1
    59:    1135.76 cm**-1
    60:    1143.12 cm**-1
    61:    1147.71 cm**-1
    62:    1155.00 cm**-1
    63:    1159.58 cm**-1
    64:    1176.94 cm**-1
    65:    1181.34 cm**-1
    66:    1209.90 cm**-1
    67:    1237.09 cm**-1
    68:    1266.32 cm**-1
    69:    1280.87 cm**-1
    70:    1324.13 cm**-1
    71:    1345.50 cm**-1
    72:    1443.37 cm**-1
    73:    1704.20 cm**-1
    74:    3630.91 cm**-1

IR SPECTRUM
-----------

 Mode   freq       eps      Int      T**2         TX        TY        TZ
       cm**-1   L/(mol*cm) km/mol    a.u.
----------------------------------------------------------------------------
  6:     21.89   0.000021    0.11  0.000298  ( 0.005100 -0.007118 -0.014876)
  7:     36.19   0.000072    0.37  0.000623  ( 0.011012  0.015250  0.016403)
  8:     40.10   0.000116    0.59  0.000903  ( 0.001193  0.002612  0.029921)
  9:     49.18   0.000019    0.10  0.000123  (-0.009542  0.005371  0.001627)
 10:     57.77   0.000058    0.29  0.000313  ( 0.000537  0.005623  0.016755)
 11:     68.33   0.000011    0.06  0.000050  (-0.005717 -0.000370  0.004139)
 12:     71.49   0.000169    0.86  0.000739  (-0.000739  0.005425  0.026625)
 13:     96.42   0.000020    0.10  0.000065  (-0.002650  0.005211 -0.005520)
 14:    111.83   0.000161    0.82  0.000451  ( 0.014359  0.015161  0.003803)
 15:    134.21   0.000020    0.10  0.000047  (-0.000353  0.005135  0.004483)
 16:    161.36   0.000215    1.08  0.000415  ( 0.007340 -0.000429 -0.018996)
 17:    170.51   0.001546    7.81  0.002830  (-0.010782 -0.008422 -0.051405)
 18:    190.12   0.001713    8.66  0.002811  ( 0.000995 -0.025216  0.046631)
 19:    199.56   0.000051    0.26  0.000080  (-0.002870 -0.000342 -0.008484)
 20:    203.87   0.000030    0.15  0.000045  ( 0.006075  0.002138 -0.001927)
 21:    217.36   0.000243    1.23  0.000349  (-0.002160 -0.017329 -0.006614)
 22:    229.46   0.000053    0.27  0.000072  (-0.004869 -0.003731 -0.005890)
 23:    242.73   0.000054    0.27  0.000069  ( 0.006432 -0.001827 -0.004908)
 24:    247.85   0.000066    0.34  0.000084  ( 0.001399 -0.000726 -0.009004)
 25:    278.65   0.001608    8.13  0.001801  ( 0.039870 -0.012011 -0.008187)
 26:    296.89   0.000117    0.59  0.000123  ( 0.007391  0.005033 -0.006578)
 27:    309.85   0.000246    1.24  0.000248  ( 0.015156 -0.004091 -0.001276)
 28:    314.82   0.002510   12.69  0.002488  (-0.046675 -0.017556  0.001191)
 29:    330.28   0.000083    0.42  0.000078  ( 0.008191  0.003349 -0.000426)
 30:    346.97   0.000152    0.77  0.000137  (-0.006665 -0.003077  0.009125)
 31:    360.49   0.000495    2.50  0.000428  ( 0.004104  0.005864 -0.019415)
 32:    361.82   0.000102    0.51  0.000088  (-0.007215  0.003552 -0.004791)
 33:    369.67   0.000038    0.19  0.000032  (-0.004878  0.002314 -0.001665)
 34:    374.12   0.000110    0.56  0.000092  ( 0.006693 -0.000022 -0.006864)
 35:    413.42   0.000302    1.52  0.000228  ( 0.002664  0.008355  0.012282)
 36:    466.69   0.001287    6.50  0.000861  (-0.007978  0.005309 -0.027727)
 37:    508.16   0.016340   82.58  0.010035  ( 0.098022 -0.013405 -0.015707)
 38:    520.42   0.002052   10.37  0.001230  ( 0.005174  0.034301  0.005202)
 39:    524.23   0.006901   34.87  0.004108  (-0.029469  0.016693  0.054414)
 40:    546.16   0.015881   80.25  0.009074  ( 0.049039 -0.026194 -0.077350)
 41:    554.69   0.004071   20.57  0.002290  ( 0.000898 -0.047365 -0.006791)
 42:    561.77   0.028661  144.84  0.015921  ( 0.105128 -0.002403  0.069741)
 43:    577.85   0.006221   31.44  0.003360  (-0.056121  0.014461  0.000928)
 44:    597.08   0.000060    0.31  0.000032  ( 0.005418  0.000079  0.001478)
 45:    618.38   0.020479  103.49  0.010335  (-0.097894  0.026251  0.007885)
 46:    640.02   0.025288  127.79  0.012330  (-0.111025  0.001684 -0.000604)
 47:    684.25   0.000284    1.44  0.000130  ( 0.005056 -0.009444  0.003842)
 48:    692.31   0.013303   67.23  0.005996  ( 0.077269 -0.004040 -0.003099)
 49:    707.60   0.010505   53.09  0.004633  ( 0.016489 -0.011927 -0.064952)
 50:    715.59   0.000226    1.14  0.000098  (-0.001354  0.003473  0.009195)
 51:    747.34   0.000867    4.38  0.000362  ( 0.000045 -0.010960 -0.015547)
 52:    858.05   0.001506    7.61  0.000548  (-0.020179 -0.010710  0.005072)
 53:   1000.90   0.024376  123.19  0.007600  (-0.077358  0.027859 -0.028978)
 54:   1053.81   0.044807  226.43  0.013269  (-0.000361  0.011141 -0.114649)
 55:   1090.77   0.012975   65.57  0.003712  (-0.000588 -0.053041 -0.029974)
 56:   1106.68   0.014434   72.94  0.004070  (-0.034523  0.047771 -0.024417)
 57:   1122.71   0.093209  471.04  0.025908  (-0.011334 -0.157742 -0.029952)
 58:   1129.11   0.020879  105.51  0.005770  ( 0.071170  0.019587  0.017934)
 59:   1135.76   0.063983  323.34  0.017580  (-0.009448 -0.122836 -0.049011)
 60:   1143.12   0.013793   69.70  0.003765  (-0.005373  0.003555  0.061024)
 61:   1147.71   0.126509  639.32  0.034398  ( 0.037536 -0.015854  0.180935)
 62:   1155.00   0.054993  277.91  0.014858  (-0.028933  0.115255 -0.027158)
 63:   1159.58   0.070717  357.38  0.019031  (-0.012889 -0.015082  0.136520)
 64:   1176.94   0.080284  405.72  0.021287  (-0.011824 -0.070841  0.127000)
 65:   1181.34   0.042868  216.64  0.011324  ( 0.082840 -0.060926 -0.027378)
 66:   1209.90   0.015734   79.51  0.004058  (-0.008547 -0.058349 -0.024096)
 67:   1237.09   0.010426   52.69  0.002630  (-0.018853 -0.033598  0.033849)
 68:   1266.32   0.004889   24.71  0.001205  ( 0.022488  0.026224  0.003388)
 69:   1280.87   0.014886   75.23  0.003627  ( 0.040931 -0.044159  0.001192)
 70:   1324.13   0.004601   23.25  0.001084  (-0.018196  0.027334 -0.002479)
 71:   1345.50   0.030891  156.11  0.007165  (-0.078969 -0.030463 -0.000689)
 72:   1443.37   0.044091  222.82  0.009533  (-0.067110  0.069779 -0.012649)
 73:   1704.20   0.066437  335.75  0.012166  ( 0.011403  0.106695 -0.025529)
 74:   3630.91   0.051724  261.39  0.004445  (-0.066539 -0.003972 -0.001493)

--------------------------
THERMOCHEMISTRY AT 298.15K
--------------------------

Temperature         ...   298.15 K
Pressure            ...     1.00 atm
Total Mass          ...   395.07 AMU
Quasi RRHO          ...     True
Cut-Off Frequency   ...     1.00 cm^-1

Throughout the following assumptions are being made:
  (1) The electronic state is orbitally nondegenerate
      but the spin degeneracy is treated
  (2) There are no thermally accessible electronically excited states
  (3) Hindered rotations indicated by low frequency modes are not
      treated as such but are treated as vibrations and this may
      cause some error
  (4) All equations used are the standard statistical mechanics
      equations for an ideal gas
  (5) All vibrations are strictly harmonic

freq.      21.89  E(vib)   ...       0.56
freq.      36.19  E(vib)   ...       0.54
freq.      40.10  E(vib)   ...       0.54
freq.      49.18  E(vib)   ...       0.52
freq.      57.77  E(vib)   ...       0.51
freq.      68.33  E(vib)   ...       0.50
freq.      71.49  E(vib)   ...       0.50
freq.      96.42  E(vib)   ...       0.47
freq.     111.83  E(vib)   ...       0.45
freq.     134.21  E(vib)   ...       0.42
freq.     161.36  E(vib)   ...       0.39
freq.     170.51  E(vib)   ...       0.38
freq.     190.12  E(vib)   ...       0.36
freq.     199.56  E(vib)   ...       0.35
freq.     203.87  E(vib)   ...       0.35
freq.     217.36  E(vib)   ...       0.34
freq.     229.46  E(vib)   ...       0.32
freq.     242.73  E(vib)   ...       0.31
freq.     247.85  E(vib)   ...       0.31
freq.     278.65  E(vib)   ...       0.28
freq.     296.89  E(vib)   ...       0.27
freq.     309.85  E(vib)   ...       0.26
freq.     314.82  E(vib)   ...       0.25
freq.     330.28  E(vib)   ...       0.24
freq.     346.97  E(vib)   ...       0.23
freq.     360.49  E(vib)   ...       0.22
freq.     361.82  E(vib)   ...       0.22
freq.     369.67  E(vib)   ...       0.21
freq.     374.12  E(vib)   ...       0.21
freq.     413.42  E(vib)   ...       0.19
freq.     466.69  E(vib)   ...       0.16
freq.     508.16  E(vib)   ...       0.14
freq.     520.42  E(vib)   ...       0.13
freq.     524.23  E(vib)   ...       0.13
freq.     546.16  E(vib)   ...       0.12
freq.     554.69  E(vib)   ...       0.12
freq.     561.77  E(vib)   ...       0.11
freq.     577.85  E(vib)   ...       0.11
freq.     597.08  E(vib)   ...       0.10
freq.     618.38  E(vib)   ...       0.09
freq.     640.02  E(vib)   ...       0.09
freq.     684.25  E(vib)   ...       0.07
freq.     692.31  E(vib)   ...       0.07
freq.     707.60  E(vib)   ...       0.07
freq.     715.59  E(vib)   ...       0.07
freq.     747.34  E(vib)   ...       0.06
freq.     858.05  E(vib)   ...       0.04
freq.    1000.90  E(vib)   ...       0.02
freq.    1053.81  E(vib)   ...       0.02
freq.    1090.77  E(vib)   ...       0.02
freq.    1106.68  E(vib)   ...       0.02
freq.    1122.71  E(vib)   ...       0.01
freq.    1129.11  E(vib)   ...       0.01
freq.    1135.76  E(vib)   ...       0.01
freq.    1143.12  E(vib)   ...       0.01
freq.    1147.71  E(vib)   ...       0.01
freq.    1155.00  E(vib)   ...       0.01
freq.    1159.58  E(vib)   ...       0.01
freq.    1176.94  E(vib)   ...       0.01
freq.    1181.34  E(vib)   ...       0.01
freq.    1209.90  E(vib)   ...       0.01
freq.    1237.09  E(vib)   ...       0.01
freq.    1266.32  E(vib)   ...       0.01
freq.    1280.87  E(vib)   ...       0.01
freq.    1324.13  E(vib)   ...       0.01
freq.    1345.50  E(vib)   ...       0.01
freq.    1443.37  E(vib)   ...       0.00
freq.    1704.20  E(vib)   ...       0.00
freq.    3630.91  E(vib)   ...       0.00

------------
INNER ENERGY
------------

The inner energy is: U= E(el) + E(ZPE) + E(vib) + E(rot) + E(trans)
    E(el)   - is the total energy from the electronic structure calculation
              = E(kin-el) + E(nuc-el) + E(el-el) + E(nuc-nuc)
    E(ZPE)  - the the zero temperature vibrational energy from the frequency calculation
    E(vib)  - the the finite temperature correction to E(ZPE) due to population
              of excited vibrational states
    E(rot)  - is the rotational thermal energy
    E(trans)- is the translational thermal energy

Summary of contributions to the inner energy U:
Electronic energy                ...  -1854.41571688 Eh
Zero point energy                ...      0.10450757 Eh      65.58 kcal/mol
Thermal vibrational correction   ...      0.02010770 Eh      12.62 kcal/mol
Thermal rotational correction    ...      0.00141627 Eh       0.89 kcal/mol
Thermal translational correction ...      0.00141627 Eh       0.89 kcal/mol
-----------------------------------------------------------------------
Total thermal energy                  -1854.28826907 Eh

Summary of corrections to the electronic energy:
(perhaps to be used in another calculation)
Total thermal correction                  0.02294024 Eh      14.40 kcal/mol
Non-thermal (ZPE) correction              0.10450757 Eh      65.58 kcal/mol
-----------------------------------------------------------------------
Total correction                          0.12744781 Eh      79.97 kcal/mol

--------
ENTHALPY
--------

The enthalpy is H = U + kB*T
                kB is Boltzmann's constant
Total thermal energy              ...  -1854.28826907 Eh
Thermal Enthalpy correction       ...      0.00094421 Eh       0.59 kcal/mol
-----------------------------------------------------------------------
Total Enthalpy                    ...  -1854.28732486 Eh

Note: Only C1 symmetry has been detected, increase convergence thresholds
      if your molecule has a higher symmetry. Symmetry factor of 1.0 is
      used for the rotational entropy correction.

Note: Rotational entropy computed according to Herzberg
Infrared and Raman Spectra, Chapter V,1, Van Nostrand Reinhold, 1945
Point Group:  C1, Symmetry Number:   1
Rotational constants in cm-1:     0.023174     0.003944     0.003820

Vibrational entropy computed according to the QRRHO of S. Grimme
Chem.Eur.J. 2012 18 9955 using a reference frequency of 100.0 cm-1

-------
ENTROPY
-------

The entropy contributions are T*S = T*(S(el)+S(vib)+S(rot)+S(trans))
     S(el)   - electronic entropy
     S(vib)  - vibrational entropy
     S(rot)  - rotational entropy
     S(trans)- translational entropy
The entropies will be listed as multiplied by the temperature to get
units of energy

Electronic entropy                ...      0.00065446 Eh      0.41 kcal/mol
Vibrational entropy               ...      0.03603803 Eh     22.61 kcal/mol

                             ****ORCA TERMINATED NORMALLY****
TOTAL RUN TIME: 0 days 0 hours 24 minutes 41 seconds 629 msec
