                         Program Version 6.0.1  -  RELEASE   -
|  1> !TPSSh def2-TZVP freq d3 TightSCF SlowConv defgrid2
|  2>
|  3> %pal
|  4> nprocs 20
|  5> end
|  6>
|  7> %scf
|  8> MaxIter 1500
|  9> end
| 10>
| 11> %maxcore 8000
| 12>
| 13> !CPCM
| 14> %cpcm smd true
| 15> SMDsolvent "ACETONITRILE"
| 16> end
| 17>
| 18> * xyz -1 2
| 19> 6        4.632930661     -0.041778802     -0.777541618
| 20> 8        4.927839954     -0.917195020     -1.649816047
| 21> 8        5.084321504      1.112482703     -0.526930161
| 22> 6        3.446295593     -0.438865204      0.194680872
| 23> 6        2.130538141      0.312326804     -0.156088668
| 24> 6        0.822250510     -0.315199380      0.431136515
| 25> 6       -0.419680351      0.635719604      0.420682322
| 26> 6       -1.707460837     -0.089131595      0.671202234
| 27> 6       -3.085596988      0.469043393      0.457640014
| 28> 6       -3.925751848     -0.297911081     -0.612289691
| 29> 9        3.172953547     -1.780679206      0.157276519
| 30> 9        3.760318456     -0.149598461      1.497149429
| 31> 9        2.218531753      1.595241837      0.270281499
| 32> 9        2.003155040      0.330196519     -1.510757132
| 33> 9        0.504271528     -1.410847996     -0.300092119
| 34> 9        1.044591877     -0.698184389      1.710545414
| 35> 9       -0.229224331      1.614665395      1.357585494
| 36> 9       -0.482682557      1.252680228     -0.790283011
| 37> 9       -1.659966744     -1.209533259      1.379472722
| 38> 9       -3.004843509      1.760448993      0.059979002
| 39> 9       -3.792623282      0.421272435      1.623348322
| 40> 9       -4.094455086     -1.574028468     -0.242778575
| 41> 9       -5.129127350      0.272484861     -0.753879730
| 42> 9       -3.298608759     -0.274198096     -1.796649297
| 43> *
| 44>
| 45>                          ****END OF INPUT****

CARTESIAN COORDINATES (ANGSTROEM)
---------------------------------
  C      4.632931   -0.041779   -0.777542
  O      4.927840   -0.917195   -1.649816
  O      5.084322    1.112483   -0.526930
  C      3.446296   -0.438865    0.194681
  C      2.130538    0.312327   -0.156089
  C      0.822251   -0.315199    0.431137
  C     -0.419680    0.635720    0.420682
  C     -1.707461   -0.089132    0.671202
  C     -3.085597    0.469043    0.457640
  C     -3.925752   -0.297911   -0.612290
  F      3.172954   -1.780679    0.157277
  F      3.760318   -0.149598    1.497149
  F      2.218532    1.595242    0.270281
  F      2.003155    0.330197   -1.510757
  F      0.504272   -1.410848   -0.300092
  F      1.044592   -0.698184    1.710545
  F     -0.229224    1.614665    1.357585
  F     -0.482683    1.252680   -0.790283
  F     -1.659967   -1.209533    1.379473
  F     -3.004844    1.760449    0.059979
  F     -3.792623    0.421272    1.623348
  F     -4.094455   -1.574028   -0.242779
  F     -5.129127    0.272485   -0.753880
  F     -3.298609   -0.274198   -1.796649

 Total Charge           Charge          ....   -1
 Multiplicity           Mult            ....    2
 Number of Electrons    NEL             ....  191
 Basis Dimension        Dim             ....  744

ORBITAL ENERGIES
----------------
                 SPIN UP ORBITALS
  NO   OCC          E(Eh)            E(eV)
   0   1.0000     -24.671678      -671.3505
   1   1.0000     -24.657562      -670.9664
   2   1.0000     -24.656850      -670.9470
   3   1.0000     -24.656770      -670.9448
   4   1.0000     -24.654473      -670.8823
   5   1.0000     -24.649220      -670.7394
   6   1.0000     -24.648962      -670.7324
   7   1.0000     -24.648678      -670.7246
   8   1.0000     -24.648565      -670.7216
   9   1.0000     -24.643574      -670.5857
  10   1.0000     -24.638435      -670.4459
  11   1.0000     -24.637500      -670.4205
  12   1.0000     -24.614122      -669.7843
  13   1.0000     -24.614016      -669.7814
  14   1.0000     -18.991755      -516.7919
  15   1.0000     -18.991585      -516.7873
  16   1.0000     -10.389947      -282.7248
  17   1.0000     -10.340227      -281.3719
  18   1.0000     -10.336417      -281.2682
  19   1.0000     -10.330368      -281.1036
  20   1.0000     -10.316921      -280.7377
  21   1.0000     -10.281120      -279.7635
  22   1.0000     -10.265662      -279.3429
  23   1.0000     -10.196348      -277.4567
  24   1.0000      -1.315771       -35.8040
  25   1.0000      -1.285703       -34.9858
  26   1.0000      -1.275066       -34.6963
  27   1.0000      -1.264017       -34.3956
  28   1.0000      -1.263148       -34.3720
  29   1.0000      -1.258275       -34.2394
  30   1.0000      -1.231461       -33.5098
  31   1.0000      -1.229539       -33.4574
  32   1.0000      -1.227367       -33.3984
  33   1.0000      -1.219975       -33.1972
  34   1.0000      -1.215371       -33.0719
  35   1.0000      -1.207990       -32.8711
  36   1.0000      -1.202796       -32.7297
  37   1.0000      -1.175441       -31.9854
  38   1.0000      -0.984759       -26.7966
  39   1.0000      -0.907963       -24.7069
  40   1.0000      -0.832018       -22.6404
  41   1.0000      -0.798938       -21.7402
  42   1.0000      -0.768816       -20.9205
  43   1.0000      -0.728972       -19.8363
  44   1.0000      -0.688724       -18.7411
  45   1.0000      -0.652535       -17.7564
  46   1.0000      -0.638850       -17.3840
  47   1.0000      -0.612262       -16.6605
  48   1.0000      -0.606930       -16.5154
  49   1.0000      -0.604484       -16.4488
  50   1.0000      -0.596635       -16.2353
  51   1.0000      -0.591452       -16.0942
  52   1.0000      -0.588328       -16.0092
  53   1.0000      -0.573944       -15.6178
  54   1.0000      -0.569831       -15.5059
  55   1.0000      -0.563860       -15.3434
  56   1.0000      -0.553722       -15.0675
  57   1.0000      -0.550813       -14.9884
  58   1.0000      -0.544657       -14.8209
  59   1.0000      -0.537021       -14.6131
  60   1.0000      -0.521395       -14.1879
  61   1.0000      -0.505397       -13.7526
  62   1.0000      -0.476988       -12.9795
  63   1.0000      -0.474022       -12.8988
  64   1.0000      -0.468193       -12.7402
  65   1.0000      -0.466196       -12.6858
  66   1.0000      -0.466020       -12.6811
  67   1.0000      -0.455086       -12.3835
  68   1.0000      -0.449016       -12.2184
  69   1.0000      -0.446401       -12.1472
  70   1.0000      -0.446124       -12.1396
  71   1.0000      -0.441745       -12.0205
  72   1.0000      -0.435142       -11.8408
  73   1.0000      -0.434319       -11.8184
  74   1.0000      -0.430652       -11.7186
  75   1.0000      -0.429689       -11.6924
  76   1.0000      -0.424237       -11.5441
  77   1.0000      -0.423199       -11.5158
  78   1.0000      -0.415710       -11.3120
  79   1.0000      -0.411426       -11.1955
  80   1.0000      -0.409810       -11.1515
  81   1.0000      -0.408462       -11.1148
  82   1.0000      -0.405680       -11.0391
  83   1.0000      -0.401922       -10.9369
  84   1.0000      -0.398693       -10.8490
  85   1.0000      -0.387288       -10.5386
  86   1.0000      -0.382033       -10.3956
  87   1.0000      -0.373788       -10.1713
  88   1.0000      -0.372385       -10.1331
  89   1.0000      -0.356619        -9.7041
  90   1.0000      -0.354836        -9.6556
  91   1.0000      -0.321439        -8.7468
  92   1.0000      -0.258602        -7.0369
  93   1.0000      -0.231616        -6.3026
  94   1.0000      -0.217403        -5.9158
  95   1.0000      -0.216863        -5.9012
  96   0.0000      -0.021245        -0.5781
  97   0.0000       0.007759         0.2111
  98   0.0000       0.023540         0.6406
  99   0.0000       0.040438         1.1004
 100   0.0000       0.060233         1.6390

                 SPIN DOWN ORBITALS
  NO   OCC          E(Eh)            E(eV)
   0   1.0000     -24.667266      -671.2304
   1   1.0000     -24.657515      -670.9651
   2   1.0000     -24.656794      -670.9455
   3   1.0000     -24.656522      -670.9381
   4   1.0000     -24.654342      -670.8787
   5   1.0000     -24.648899      -670.7306
   6   1.0000     -24.648603      -670.7226
   7   1.0000     -24.648214      -670.7120
   8   1.0000     -24.648019      -670.7067
   9   1.0000     -24.641903      -670.5403
  10   1.0000     -24.638432      -670.4458
  11   1.0000     -24.637500      -670.4205
  12   1.0000     -24.614122      -669.7843
  13   1.0000     -24.614015      -669.7814
  14   1.0000     -18.991754      -516.7919
  15   1.0000     -18.991585      -516.7873
  16   1.0000     -10.389353      -282.7087
  17   1.0000     -10.341088      -281.3953
  18   1.0000     -10.337137      -281.2878
  19   1.0000     -10.330332      -281.1026
  20   1.0000     -10.316935      -280.7381
  21   1.0000     -10.281122      -279.7636
  22   1.0000     -10.249802      -278.9113
  23   1.0000     -10.196348      -277.4567
  24   1.0000      -1.315389       -35.7936
  25   1.0000      -1.284432       -34.9512
  26   1.0000      -1.273303       -34.6483
  27   1.0000      -1.262509       -34.3546
  28   1.0000      -1.259796       -34.2808
  29   1.0000      -1.254608       -34.1396
  30   1.0000      -1.231451       -33.5095
  31   1.0000      -1.229227       -33.4490
  32   1.0000      -1.227003       -33.3885
  33   1.0000      -1.219430       -33.1824
  34   1.0000      -1.214040       -33.0357
  35   1.0000      -1.205856       -32.8130
  36   1.0000      -1.202773       -32.7291
  37   1.0000      -1.175439       -31.9853
  38   1.0000      -0.984758       -26.7966
  39   1.0000      -0.907962       -24.7069
  40   1.0000      -0.818392       -22.2696
  41   1.0000      -0.797212       -21.6932
  42   1.0000      -0.766168       -20.8485
  43   1.0000      -0.722741       -19.6668
  44   1.0000      -0.687436       -18.7061
  45   1.0000      -0.648948       -17.6588
  46   1.0000      -0.637204       -17.3392
  47   1.0000      -0.608293       -16.5525
  48   1.0000      -0.605672       -16.4812
  49   1.0000      -0.602473       -16.3941
  50   1.0000      -0.595833       -16.2134
  51   1.0000      -0.590350       -16.0643
  52   1.0000      -0.586938       -15.9714
  53   1.0000      -0.572283       -15.5726
  54   1.0000      -0.567672       -15.4471
  55   1.0000      -0.561708       -15.2849
  56   1.0000      -0.551468       -15.0062
  57   1.0000      -0.549607       -14.9556
  58   1.0000      -0.543547       -14.7907
  59   1.0000      -0.536427       -14.5969
  60   1.0000      -0.521379       -14.1875
  61   1.0000      -0.477358       -12.9896
  62   1.0000      -0.475119       -12.9287
  63   1.0000      -0.473047       -12.8723
  64   1.0000      -0.467864       -12.7312
  65   1.0000      -0.465453       -12.6656
  66   1.0000      -0.464918       -12.6510
  67   1.0000      -0.454350       -12.3635
  68   1.0000      -0.448228       -12.1969
  69   1.0000      -0.445513       -12.1230
  70   1.0000      -0.444186       -12.0869
  71   1.0000      -0.439887       -11.9699
  72   1.0000      -0.433843       -11.8055
  73   1.0000      -0.432450       -11.7676
  74   1.0000      -0.429926       -11.6989
  75   1.0000      -0.427912       -11.6441
  76   1.0000      -0.423259       -11.5175
  77   1.0000      -0.421983       -11.4827
  78   1.0000      -0.414991       -11.2925
  79   1.0000      -0.409659       -11.1474
  80   1.0000      -0.409408       -11.1406
  81   1.0000      -0.407558       -11.0902
  82   1.0000      -0.405064       -11.0223
  83   1.0000      -0.401687       -10.9305
  84   1.0000      -0.398005       -10.8303
  85   1.0000      -0.386805       -10.5255
  86   1.0000      -0.382026       -10.3955
  87   1.0000      -0.372948       -10.1484
  88   1.0000      -0.371376       -10.1056
  89   1.0000      -0.356435        -9.6991
  90   1.0000      -0.353054        -9.6071
  91   1.0000      -0.320533        -8.7221
  92   1.0000      -0.231616        -6.3026
  93   1.0000      -0.217396        -5.9157
  94   1.0000      -0.216856        -5.9010
  95   0.0000      -0.132275        -3.5994
  96   0.0000      -0.016966        -0.4617
  97   0.0000       0.009627         0.2620
  98   0.0000       0.027025         0.7354
  99   0.0000       0.044096         1.1999

MULLIKEN ATOMIC CHARGES AND SPIN POPULATIONS
--------------------------------------------
   0 C :    0.190999   -0.000062
   1 O :   -0.506739    0.000033
   2 O :   -0.502395   -0.000002
   3 C :    0.318035   -0.000100
   4 C :    0.273542    0.000044
   5 C :    0.295267   -0.008846
   6 C :    0.331620    0.001018
   7 C :    0.118878    0.859361
   8 C :    0.300341   -0.024234
   9 C :    0.414905    0.019164
  10 F :   -0.196201    0.000006
  11 F :   -0.199116    0.000016
  12 F :   -0.165580    0.000019
  13 F :   -0.172336    0.000008
  14 F :   -0.160526    0.001047
  15 F :   -0.159135    0.001333
  16 F :   -0.164390    0.031563
  17 F :   -0.160343    0.008645
  18 F :   -0.129377    0.083922
  19 F :   -0.151336    0.001581
  20 F :   -0.155492    0.019444
  21 F :   -0.141910    0.000741
  22 F :   -0.136560    0.004743
  23 F :   -0.142153    0.000555
Sum of atomic charges         :   -1.0000000

LOEWDIN ATOMIC CHARGES AND SPIN POPULATIONS
-------------------------------------------
   0 C :   -0.637991   -0.000018
   1 O :   -0.085774    0.000033
   2 O :   -0.074071   -0.000003
   3 C :   -0.440680   -0.000059
   4 C :   -0.455235   -0.000260
   5 C :   -0.450082    0.000977
   6 C :   -0.471271    0.060079
   7 C :   -0.159454    0.669122
   8 C :   -0.480297    0.061497
   9 C :   -0.654205    0.017203
  10 F :    0.162218    0.000019
  11 F :    0.157279    0.000025
  12 F :    0.209742    0.000108
  13 F :    0.202227    0.000024
  14 F :    0.215567    0.001861
  15 F :    0.216141    0.001563
  16 F :    0.192155    0.035734
  17 F :    0.209543    0.012449
  18 F :    0.261840    0.108097
  19 F :    0.220697    0.002580
  20 F :    0.200584    0.020401
  21 F :    0.221120    0.001235
  22 F :    0.220001    0.005549
  23 F :    0.219949    0.001785

  Mayer bond orders larger than 0.100000
B(  0-C ,  1-O ) :   1.8372 B(  0-C ,  2-O ) :   1.8248 B(  0-C ,  3-C ) :   0.8517
B(  3-C ,  4-C ) :   0.9374 B(  3-C , 10-F ) :   1.0536 B(  3-C , 11-F ) :   1.0510
B(  4-C ,  5-C ) :   0.9384 B(  4-C , 12-F ) :   1.0852 B(  4-C , 13-F ) :   1.0763
B(  5-C ,  6-C ) :   0.9512 B(  5-C , 14-F ) :   1.0814 B(  5-C , 15-F ) :   1.0828
B(  6-C ,  7-C ) :   1.0528 B(  6-C , 16-F ) :   1.0692 B(  6-C , 17-F ) :   1.0710
B(  7-C ,  8-C ) :   1.0417 B(  7-C , 18-F ) :   1.1275 B(  8-C ,  9-C ) :   0.9694
B(  8-C , 19-F ) :   1.0999 B(  8-C , 20-F ) :   1.1018 B(  9-C , 21-F ) :   1.1527
B(  9-C , 22-F ) :   1.1588 B(  9-C , 23-F ) :   1.1592

Dispersion correction           -0.028919920
FINAL SINGLE POINT ENERGY     -1853.952612156967

DIPOLE MOMENT
-------------

Method             : SCF
Type of density    : Electron Density
Multiplicity       :   2
Irrep              :   0
Energy             : -1853.9236922369248077 Eh
Relativity type    :
Basis              : AO
                                X                 Y                 Z
Electronic contribution:    -17.289117059      -0.342995784       3.414482719
Nuclear contribution   :      8.875485781       0.152524456      -1.732923432
                        -----------------------------------------
Total Dipole Moment    :     -8.413631277      -0.190471328       1.681559287
                        -----------------------------------------
Magnitude (a.u.)       :      8.582139141
Magnitude (Debye)      :     21.814064104

VIBRATIONAL FREQUENCIES
-----------------------

Scaling factor for frequencies =  1.000000000  (already applied!)

     0:       0.00 cm**-1
     1:       0.00 cm**-1
     2:       0.00 cm**-1
     3:       0.00 cm**-1
     4:       0.00 cm**-1
     5:       0.00 cm**-1
     6:      27.19 cm**-1
     7:      33.19 cm**-1
     8:      48.60 cm**-1
     9:      55.71 cm**-1
    10:      63.17 cm**-1
    11:      68.10 cm**-1
    12:      85.48 cm**-1
    13:      99.09 cm**-1
    14:     130.23 cm**-1
    15:     143.10 cm**-1
    16:     154.36 cm**-1
    17:     170.99 cm**-1
    18:     189.14 cm**-1
    19:     194.59 cm**-1
    20:     201.03 cm**-1
    21:     210.57 cm**-1
    22:     235.21 cm**-1
    23:     242.55 cm**-1
    24:     258.51 cm**-1
    25:     267.01 cm**-1
    26:     284.75 cm**-1
    27:     298.52 cm**-1
    28:     328.97 cm**-1
    29:     335.57 cm**-1
    30:     349.13 cm**-1
    31:     353.04 cm**-1
    32:     361.60 cm**-1
    33:     365.28 cm**-1
    34:     401.55 cm**-1
    35:     432.79 cm**-1
    36:     465.79 cm**-1
    37:     488.95 cm**-1
    38:     521.41 cm**-1
    39:     529.68 cm**-1
    40:     543.34 cm**-1
    41:     558.19 cm**-1
    42:     582.43 cm**-1
    43:     586.72 cm**-1
    44:     628.57 cm**-1
    45:     632.67 cm**-1
    46:     653.94 cm**-1
    47:     703.37 cm**-1
    48:     709.88 cm**-1
    49:     758.63 cm**-1
    50:     784.23 cm**-1
    51:     866.23 cm**-1
    52:     978.82 cm**-1
    53:    1028.66 cm**-1
    54:    1056.62 cm**-1
    55:    1077.72 cm**-1
    56:    1089.57 cm**-1
    57:    1098.80 cm**-1
    58:    1106.61 cm**-1
    59:    1121.09 cm**-1
    60:    1135.42 cm**-1
    61:    1140.16 cm**-1
    62:    1152.77 cm**-1
    63:    1156.64 cm**-1
    64:    1169.90 cm**-1
    65:    1224.83 cm**-1
    66:    1235.47 cm**-1
    67:    1272.67 cm**-1
    68:    1289.70 cm**-1
    69:    1328.89 cm**-1
    70:    1378.02 cm**-1
    71:    1572.00 cm**-1

IR SPECTRUM
-----------

 Mode   freq       eps      Int      T**2         TX        TY        TZ
       cm**-1   L/(mol*cm) km/mol    a.u.
----------------------------------------------------------------------------
  6:     27.19   0.000202    1.02  0.002316  (-0.024711 -0.031931 -0.026182)
  7:     33.19   0.000302    1.53  0.002838  (-0.024603  0.005689 -0.046904)
  8:     48.60   0.000262    1.33  0.001684  (-0.001863 -0.040922 -0.002411)
  9:     55.71   0.000426    2.15  0.002387  ( 0.021323 -0.016412  0.040784)
 10:     63.17   0.000096    0.49  0.000474  ( 0.004566  0.021060 -0.003162)
 11:     68.10   0.000466    2.35  0.002135  (-0.006730 -0.045406 -0.005305)
 12:     85.48   0.000233    1.18  0.000851  (-0.011410  0.012054 -0.023994)
 13:     99.09   0.000504    2.55  0.001588  ( 0.020572 -0.011612  0.032093)
 14:    130.23   0.000135    0.68  0.000324  (-0.016411  0.005070 -0.005368)
 15:    143.10   0.001045    5.28  0.002279  ( 0.045138 -0.014285 -0.006154)
 16:    154.36   0.000011    0.06  0.000022  ( 0.003693 -0.001002  0.002754)
 17:    170.99   0.001558    7.87  0.002844  ( 0.025564 -0.011370  0.045396)
 18:    189.14   0.000334    1.69  0.000552  ( 0.013420  0.005788 -0.018393)
 19:    194.59   0.000090    0.46  0.000145  ( 0.006923 -0.009850  0.000304)
 20:    201.03   0.000890    4.50  0.001382  (-0.015520 -0.032848 -0.007882)
 21:    210.57   0.000789    3.99  0.001170  (-0.007646  0.009582  0.031927)
 22:    235.21   0.000037    0.19  0.000049  ( 0.001838  0.002872 -0.006132)
 23:    242.55   0.000054    0.27  0.000070  (-0.000678 -0.003667 -0.007463)
 24:    258.51   0.000829    4.19  0.001001  ( 0.030359 -0.001120 -0.008812)
 25:    267.01   0.000409    2.07  0.000478  ( 0.016542  0.002660  0.014045)
 26:    284.75   0.000441    2.23  0.000484  (-0.018781  0.009830  0.005861)
 27:    298.52   0.000109    0.55  0.000114  ( 0.008719 -0.005765 -0.002272)
 28:    328.97   0.000029    0.15  0.000027  (-0.001824  0.002203 -0.004392)
 29:    335.57   0.000364    1.84  0.000339  (-0.014452  0.007464 -0.008606)
 30:    349.13   0.000044    0.22  0.000039  (-0.000443 -0.001444 -0.006069)
 31:    353.04   0.000089    0.45  0.000078  (-0.008682  0.001281  0.001108)
 32:    361.60   0.000255    1.29  0.000220  ( 0.014178 -0.000300  0.004308)
 33:    365.28   0.000120    0.61  0.000102  (-0.009753  0.002241 -0.001482)
 34:    401.55   0.000393    1.98  0.000305  ( 0.006185  0.016334 -0.000262)
 35:    432.79   0.000326    1.65  0.000235  ( 0.005543  0.005874 -0.013041)
 36:    465.79   0.001862    9.41  0.001247  (-0.029529  0.019030  0.003626)
 37:    488.95   0.005186   26.21  0.003310  ( 0.056237 -0.010900 -0.005324)
 38:    521.41   0.006577   33.24  0.003936  (-0.061829  0.009634  0.004534)
 39:    529.68   0.005448   27.53  0.003210  ( 0.055238 -0.009296  0.008478)
 40:    543.34   0.005551   28.05  0.003188  (-0.043664  0.028776 -0.021302)
 41:    558.19   0.011328   57.25  0.006333  ( 0.072995  0.027262 -0.016169)
 42:    582.43   0.000512    2.59  0.000275  (-0.014939  0.006279 -0.003450)
 43:    586.72   0.002463   12.45  0.001310  (-0.035457 -0.002609 -0.006772)
 44:    628.57   0.015062   76.12  0.007478  (-0.081444 -0.020670 -0.020437)
 45:    632.67   0.026941  136.15  0.013289  ( 0.113103 -0.004470 -0.021828)
 46:    653.94   0.002393   12.10  0.001142  ( 0.018872 -0.019933 -0.019716)
 47:    703.37   0.001948    9.85  0.000864  (-0.025226  0.002764  0.014844)
 48:    709.88   0.005298   26.77  0.002329  ( 0.028850  0.010290  0.037293)
 49:    758.63   0.000720    3.64  0.000296  ( 0.010722 -0.012280 -0.005524)
 50:    784.23   0.016570   83.74  0.006593  ( 0.054948  0.025029 -0.054293)
 51:    866.23   0.004764   24.08  0.001716  ( 0.021174  0.007563  0.034797)
 52:    978.82   0.027473  138.84  0.008759  (-0.042435 -0.009099 -0.082919)
 53:   1028.66   0.009269   46.84  0.002812  (-0.025796 -0.037932 -0.026601)
 54:   1056.62   0.066675  336.95  0.019692  ( 0.011891 -0.083926 -0.111834)
 55:   1077.72   0.044471  224.74  0.012877  (-0.036603 -0.080986 -0.070558)
 56:   1089.57   0.043467  219.67  0.012450  (-0.016050 -0.025322  0.107474)
 57:   1098.80   0.036913  186.54  0.010483  ( 0.031735  0.078965 -0.056928)
 58:   1106.61   0.023088  116.68  0.006511  ( 0.034489 -0.036433  0.063198)
 59:   1121.09   0.094109  475.59  0.026196  (-0.024961 -0.087945 -0.133561)
 60:   1135.42   0.096657  488.47  0.026566  (-0.011734  0.162255 -0.010066)
 61:   1140.16   0.051324  259.37  0.014048  ( 0.035319 -0.087190  0.072096)
 62:   1152.77   0.118231  597.49  0.032006  (-0.085418 -0.088939  0.129614)
 63:   1156.64   0.037453  189.27  0.010105  ( 0.076020 -0.063992 -0.015201)
 64:   1169.90   0.003919   19.80  0.001045  (-0.005737  0.031724 -0.002434)
 65:   1224.83   0.015128   76.45  0.003854  (-0.047972  0.005964  0.038955)
 66:   1235.47   0.007279   36.78  0.001839  (-0.026938  0.000737 -0.033351)
 67:   1272.67   0.039565  199.94  0.009701  ( 0.095755 -0.005073  0.022508)
 68:   1289.70   0.030185  152.54  0.007304  ( 0.067806  0.019119 -0.048378)
 69:   1328.89   0.006158   31.12  0.001446  (-0.036237  0.001503  0.011434)
 70:   1378.02   0.007678   38.80  0.001739  (-0.009912 -0.030349  0.026822)
 71:   1572.00   0.151524  765.74  0.030080  ( 0.015619  0.152513  0.081090)

--------------------------
THERMOCHEMISTRY AT 298.15K
--------------------------

Temperature         ...   298.15 K
Pressure            ...     1.00 atm
Total Mass          ...   394.06 AMU
Quasi RRHO          ...     True
Cut-Off Frequency   ...     1.00 cm^-1

Throughout the following assumptions are being made:
  (1) The electronic state is orbitally nondegenerate
      but the spin degeneracy is treated
  (2) There are no thermally accessible electronically excited states
  (3) Hindered rotations indicated by low frequency modes are not
      treated as such but are treated as vibrations and this may
      cause some error
  (4) All equations used are the standard statistical mechanics
      equations for an ideal gas
  (5) All vibrations are strictly harmonic

freq.      27.19  E(vib)   ...       0.55
freq.      33.19  E(vib)   ...       0.55
freq.      48.60  E(vib)   ...       0.53
freq.      55.71  E(vib)   ...       0.52
freq.      63.17  E(vib)   ...       0.51
freq.      68.10  E(vib)   ...       0.50
freq.      85.48  E(vib)   ...       0.48
freq.      99.09  E(vib)   ...       0.46
freq.     130.23  E(vib)   ...       0.43
freq.     143.10  E(vib)   ...       0.41
freq.     154.36  E(vib)   ...       0.40
freq.     170.99  E(vib)   ...       0.38
freq.     189.14  E(vib)   ...       0.36
freq.     194.59  E(vib)   ...       0.36
freq.     201.03  E(vib)   ...       0.35
freq.     210.57  E(vib)   ...       0.34
freq.     235.21  E(vib)   ...       0.32
freq.     242.55  E(vib)   ...       0.31
freq.     258.51  E(vib)   ...       0.30
freq.     267.01  E(vib)   ...       0.29
freq.     284.75  E(vib)   ...       0.28
freq.     298.52  E(vib)   ...       0.26
freq.     328.97  E(vib)   ...       0.24
freq.     335.57  E(vib)   ...       0.24
freq.     349.13  E(vib)   ...       0.23
freq.     353.04  E(vib)   ...       0.22
freq.     361.60  E(vib)   ...       0.22
freq.     365.28  E(vib)   ...       0.22
freq.     401.55  E(vib)   ...       0.19
freq.     432.79  E(vib)   ...       0.17
freq.     465.79  E(vib)   ...       0.16
freq.     488.95  E(vib)   ...       0.15
freq.     521.41  E(vib)   ...       0.13
freq.     529.68  E(vib)   ...       0.13
freq.     543.34  E(vib)   ...       0.12
freq.     558.19  E(vib)   ...       0.12
freq.     582.43  E(vib)   ...       0.11
freq.     586.72  E(vib)   ...       0.11
freq.     628.57  E(vib)   ...       0.09
freq.     632.67  E(vib)   ...       0.09
freq.     653.94  E(vib)   ...       0.08
freq.     703.37  E(vib)   ...       0.07
freq.     709.88  E(vib)   ...       0.07
freq.     758.63  E(vib)   ...       0.06
freq.     784.23  E(vib)   ...       0.05
freq.     866.23  E(vib)   ...       0.04
freq.     978.82  E(vib)   ...       0.03
freq.    1028.66  E(vib)   ...       0.02
freq.    1056.62  E(vib)   ...       0.02
freq.    1077.72  E(vib)   ...       0.02
freq.    1089.57  E(vib)   ...       0.02
freq.    1098.80  E(vib)   ...       0.02
freq.    1106.61  E(vib)   ...       0.02
freq.    1121.09  E(vib)   ...       0.01
freq.    1135.42  E(vib)   ...       0.01
freq.    1140.16  E(vib)   ...       0.01
freq.    1152.77  E(vib)   ...       0.01
freq.    1156.64  E(vib)   ...       0.01
freq.    1169.90  E(vib)   ...       0.01
freq.    1224.83  E(vib)   ...       0.01
freq.    1235.47  E(vib)   ...       0.01
freq.    1272.67  E(vib)   ...       0.01
freq.    1289.70  E(vib)   ...       0.01
freq.    1328.89  E(vib)   ...       0.01
freq.    1378.02  E(vib)   ...       0.01
freq.    1572.00  E(vib)   ...       0.00

------------
INNER ENERGY
------------

The inner energy is: U= E(el) + E(ZPE) + E(vib) + E(rot) + E(trans)
    E(el)   - is the total energy from the electronic structure calculation
              = E(kin-el) + E(nuc-el) + E(el-el) + E(nuc-nuc)
    E(ZPE)  - the the zero temperature vibrational energy from the frequency calculation
    E(vib)  - the the finite temperature correction to E(ZPE) due to population
              of excited vibrational states
    E(rot)  - is the rotational thermal energy
    E(trans)- is the translational thermal energy

Summary of contributions to the inner energy U:
Electronic energy                ...  -1853.95261216 Eh
Zero point energy                ...      0.09116638 Eh      57.21 kcal/mol
Thermal vibrational correction   ...      0.01980695 Eh      12.43 kcal/mol
Thermal rotational correction    ...      0.00141627 Eh       0.89 kcal/mol
Thermal translational correction ...      0.00141627 Eh       0.89 kcal/mol
-----------------------------------------------------------------------
Total thermal energy                  -1853.83880629 Eh

Summary of corrections to the electronic energy:
(perhaps to be used in another calculation)
Total thermal correction                  0.02263949 Eh      14.21 kcal/mol
Non-thermal (ZPE) correction              0.09116638 Eh      57.21 kcal/mol
-----------------------------------------------------------------------
Total correction                          0.11380587 Eh      71.41 kcal/mol

--------
ENTHALPY
--------

The enthalpy is H = U + kB*T
                kB is Boltzmann's constant
Total thermal energy              ...  -1853.83880629 Eh
Thermal Enthalpy correction       ...      0.00094421 Eh       0.59 kcal/mol
-----------------------------------------------------------------------
Total Enthalpy                    ...  -1853.83786208 Eh

Note: Only C1 symmetry has been detected, increase convergence thresholds
      if your molecule has a higher symmetry. Symmetry factor of 1.0 is
      used for the rotational entropy correction.

Note: Rotational entropy computed according to Herzberg
Infrared and Raman Spectra, Chapter V,1, Van Nostrand Reinhold, 1945
Point Group:  C1, Symmetry Number:   1
Rotational constants in cm-1:     0.019972     0.004015     0.003995

Vibrational entropy computed according to the QRRHO of S. Grimme
Chem.Eur.J. 2012 18 9955 using a reference frequency of 100.0 cm-1

-------
ENTROPY
-------

The entropy contributions are T*S = T*(S(el)+S(vib)+S(rot)+S(trans))
     S(el)   - electronic entropy
     S(vib)  - vibrational entropy
     S(rot)  - rotational entropy
     S(trans)- translational entropy
The entropies will be listed as multiplied by the temperature to get
units of energy

Electronic entropy                ...      0.00065446 Eh      0.41 kcal/mol
Vibrational entropy               ...      0.03543225 Eh     22.23 kcal/mol
Rotational entropy                ...      0.01657033 Eh     10.40 kcal/mol
Translational entropy             ...      0.02081341 Eh     13.06 kcal/mol
-----------------------------------------------------------------------

                             ****ORCA TERMINATED NORMALLY****
TOTAL RUN TIME: 0 days 0 hours 21 minutes 23 seconds 929 msec
