                         Program Version 6.0.1  -  RELEASE   -
|  1> !r2scanh def2-TZVP freq d3 TightSCF SlowConv defgrid2
|  2>
|  3> %pal
|  4> nprocs 20
|  5> end
|  6>
|  7> %scf
|  8> MaxIter 1500
|  9> end
| 10>
| 11> %maxcore 8000
| 12>
| 13> !CPCM
| 14> %cpcm smd true
| 15> SMDsolvent "ACETONITRILE"
| 16> end
| 17>
| 18> * xyz -2 2
| 19> 6        4.955752000      0.205942000     -0.280283000
| 20> 8        5.418980000     -0.259481000     -1.331315000
| 21> 8        5.331398000      1.156578000      0.424017000
| 22> 6        3.653988000     -0.490537000      0.244906000
| 23> 6        2.364177000      0.309860000     -0.063708000
| 24> 6        0.991304000     -0.411805000      0.034002000
| 25> 6       -0.359461000      0.360457000      0.029217000
| 26> 6       -1.807398000     -0.243389000     -0.012722000
| 27> 6       -3.175673000      0.495433000     -0.012394000
| 28> 6       -4.537572000     -0.214907000     -0.044132000
| 29> 9        3.503315000     -1.736449000     -0.293328000
| 30> 9        3.712742000     -0.670037000      1.597118000
| 31> 9        2.332631000      1.372951000      0.782487000
| 32> 9        2.473088000      0.794962000     -1.329636000
| 33> 9        0.939952000     -1.278015000     -1.023741000
| 34> 9        1.014610000     -1.140377000      1.191779000
| 35> 9       -0.339648000      1.142143000      1.164056000
| 36> 9       -0.292853000      1.177576000     -1.087952000
| 37> 9       -1.867011000     -1.066287000      1.104613000
| 38> 9       -1.836188000     -1.017535000     -1.158810000
| 39> 9       -3.181217000      1.311969000     -1.114735000
| 40> 9       -3.207398000      1.269483000      1.118368000
| 41> 9       -4.683073000     -1.005658000      1.022949000
| 42> 9       -5.600317000      0.634091000     -0.042086000
| 43> 9       -4.652722000     -0.963413000     -1.145128000
| 44> *
| 45>
| 46>                          ****END OF INPUT****

CARTESIAN COORDINATES (ANGSTROEM)
---------------------------------
  C      4.955752    0.205942   -0.280283
  O      5.418980   -0.259481   -1.331315
  O      5.331398    1.156578    0.424017
  C      3.653988   -0.490537    0.244906
  C      2.364177    0.309860   -0.063708
  C      0.991304   -0.411805    0.034002
  C     -0.359461    0.360457    0.029217
  C     -1.807398   -0.243389   -0.012722
  C     -3.175673    0.495433   -0.012394
  C     -4.537572   -0.214907   -0.044132
  F      3.503315   -1.736449   -0.293328
  F      3.712742   -0.670037    1.597118
  F      2.332631    1.372951    0.782487
  F      2.473088    0.794962   -1.329636
  F      0.939952   -1.278015   -1.023741
  F      1.014610   -1.140377    1.191779
  F     -0.339648    1.142143    1.164056
  F     -0.292853    1.177576   -1.087952
  F     -1.867011   -1.066287    1.104613
  F     -1.836188   -1.017535   -1.158810
  F     -3.181217    1.311969   -1.114735
  F     -3.207398    1.269483    1.118368
  F     -4.683073   -1.005658    1.022949
  F     -5.600317    0.634091   -0.042086
  F     -4.652722   -0.963413   -1.145128

 Total Charge           Charge          ....   -2
 Multiplicity           Mult            ....    2
 Number of Electrons    NEL             ....  201
 Basis Dimension        Dim             ....  775

ORBITAL ENERGIES
----------------
                 SPIN UP ORBITALS
  NO   OCC          E(Eh)            E(eV)
   0   1.0000     -24.705687      -672.2759
   1   1.0000     -24.705654      -672.2750
   2   1.0000     -24.696900      -672.0368
   3   1.0000     -24.686662      -671.7582
   4   1.0000     -24.686190      -671.7454
   5   1.0000     -24.686078      -671.7423
   6   1.0000     -24.683546      -671.6734
   7   1.0000     -24.682213      -671.6372
   8   1.0000     -24.679990      -671.5767
   9   1.0000     -24.672472      -671.3721
  10   1.0000     -24.672219      -671.3652
  11   1.0000     -24.671057      -671.3336
  12   1.0000     -24.671026      -671.3327
  13   1.0000     -24.670625      -671.3218
  14   1.0000     -24.669278      -671.2852
  15   1.0000     -19.037604      -518.0395
  16   1.0000     -19.036698      -518.0149
  17   1.0000     -10.403135      -283.0837
  18   1.0000     -10.330653      -281.1114
  19   1.0000     -10.328274      -281.0466
  20   1.0000     -10.324808      -280.9523
  21   1.0000     -10.315203      -280.6910
  22   1.0000     -10.314279      -280.6658
  23   1.0000     -10.304600      -280.4024
  24   1.0000     -10.221487      -278.1408
  25   1.0000      -1.325345       -36.0645
  26   1.0000      -1.280952       -34.8565
  27   1.0000      -1.269801       -34.5530
  28   1.0000      -1.261106       -34.3164
  29   1.0000      -1.251183       -34.0464
  30   1.0000      -1.248846       -33.9828
  31   1.0000      -1.240763       -33.7629
  32   1.0000      -1.238763       -33.7084
  33   1.0000      -1.228106       -33.4185
  34   1.0000      -1.217604       -33.1327
  35   1.0000      -1.213780       -33.0286
  36   1.0000      -1.206451       -32.8292
  37   1.0000      -1.198559       -32.6144
  38   1.0000      -1.193422       -32.4747
  39   1.0000      -1.191291       -32.4167
  40   1.0000      -1.016615       -27.6635
  41   1.0000      -0.931150       -25.3379
  42   1.0000      -0.788555       -21.4577
  43   1.0000      -0.782042       -21.2804
  44   1.0000      -0.752174       -20.4677
  45   1.0000      -0.719286       -19.5728
  46   1.0000      -0.679845       -18.4995
  47   1.0000      -0.647632       -17.6230
  48   1.0000      -0.624330       -16.9889
  49   1.0000      -0.594208       -16.1692
  50   1.0000      -0.592579       -16.1249
  51   1.0000      -0.590855       -16.0780
  52   1.0000      -0.578297       -15.7363
  53   1.0000      -0.573101       -15.5949
  54   1.0000      -0.570339       -15.5197
  55   1.0000      -0.557800       -15.1785
  56   1.0000      -0.554601       -15.0915
  57   1.0000      -0.545879       -14.8541
  58   1.0000      -0.543582       -14.7916
  59   1.0000      -0.535965       -14.5843
  60   1.0000      -0.529795       -14.4164
  61   1.0000      -0.525680       -14.3045
  62   1.0000      -0.519296       -14.1308
  63   1.0000      -0.511246       -13.9117
  64   1.0000      -0.462951       -12.5975
  65   1.0000      -0.462781       -12.5929
  66   1.0000      -0.456710       -12.4277
  67   1.0000      -0.447330       -12.1725
  68   1.0000      -0.444524       -12.0961
  69   1.0000      -0.441872       -12.0240
  70   1.0000      -0.437298       -11.8995
  71   1.0000      -0.435248       -11.8437
  72   1.0000      -0.431997       -11.7552
  73   1.0000      -0.430976       -11.7275
  74   1.0000      -0.428171       -11.6511
  75   1.0000      -0.424771       -11.5586
  76   1.0000      -0.421982       -11.4827
  77   1.0000      -0.415641       -11.3102
  78   1.0000      -0.414748       -11.2859
  79   1.0000      -0.408994       -11.1293
  80   1.0000      -0.403563       -10.9815
  81   1.0000      -0.402355       -10.9486
  82   1.0000      -0.401701       -10.9308
  83   1.0000      -0.394206       -10.7269
  84   1.0000      -0.392909       -10.6916
  85   1.0000      -0.390905       -10.6371
  86   1.0000      -0.387744       -10.5511
  87   1.0000      -0.383162       -10.4264
  88   1.0000      -0.381563       -10.3829
  89   1.0000      -0.380861       -10.3637
  90   1.0000      -0.377205       -10.2643
  91   1.0000      -0.373276       -10.1574
  92   1.0000      -0.365066        -9.9340
  93   1.0000      -0.363624        -9.8947
  94   1.0000      -0.353642        -9.6231
  95   1.0000      -0.329966        -8.9788
  96   1.0000      -0.298341        -8.1183
  97   1.0000      -0.231194        -6.2911
  98   1.0000      -0.215152        -5.8546
  99   1.0000      -0.212615        -5.7856
 100   1.0000      -0.066304        -1.8042
 101   0.0000       0.023199         0.6313
 102   0.0000       0.042620         1.1598
 103   0.0000       0.056294         1.5318
 104   0.0000       0.073525         2.0007
 105   0.0000       0.100288         2.7290

                 SPIN DOWN ORBITALS
  NO   OCC          E(Eh)            E(eV)
   0   1.0000     -24.705646      -672.2748
   1   1.0000     -24.705616      -672.2740
   2   1.0000     -24.695385      -671.9956
   3   1.0000     -24.686184      -671.7452
   4   1.0000     -24.686000      -671.7402
   5   1.0000     -24.685688      -671.7317
   6   1.0000     -24.683377      -671.6688
   7   1.0000     -24.681909      -671.6289
   8   1.0000     -24.679625      -671.5667
   9   1.0000     -24.671732      -671.3520
  10   1.0000     -24.671600      -671.3484
  11   1.0000     -24.670566      -671.3202
  12   1.0000     -24.670367      -671.3148
  13   1.0000     -24.670211      -671.3106
  14   1.0000     -24.669183      -671.2826
  15   1.0000     -19.037372      -518.0332
  16   1.0000     -19.036496      -518.0094
  17   1.0000     -10.401425      -283.0372
  18   1.0000     -10.328052      -281.0406
  19   1.0000     -10.327093      -281.0145
  20   1.0000     -10.322526      -280.8902
  21   1.0000     -10.311323      -280.5854
  22   1.0000     -10.310643      -280.5669
  23   1.0000     -10.304067      -280.3879
  24   1.0000     -10.221299      -278.1357
  25   1.0000      -1.324165       -36.0324
  26   1.0000      -1.279889       -34.8276
  27   1.0000      -1.267990       -34.5038
  28   1.0000      -1.259987       -34.2860
  29   1.0000      -1.250749       -34.0346
  30   1.0000      -1.247277       -33.9401
  31   1.0000      -1.240626       -33.7591
  32   1.0000      -1.236854       -33.6565
  33   1.0000      -1.225760       -33.3546
  34   1.0000      -1.217102       -33.1190
  35   1.0000      -1.212851       -33.0034
  36   1.0000      -1.205834       -32.8124
  37   1.0000      -1.197404       -32.5830
  38   1.0000      -1.193219       -32.4691
  39   1.0000      -1.190037       -32.3826
  40   1.0000      -1.016207       -27.6524
  41   1.0000      -0.930754       -25.3271
  42   1.0000      -0.778236       -21.1769
  43   1.0000      -0.773400       -21.0453
  44   1.0000      -0.742518       -20.2049
  45   1.0000      -0.711833       -19.3699
  46   1.0000      -0.675485       -18.3809
  47   1.0000      -0.644905       -17.5487
  48   1.0000      -0.621805       -16.9202
  49   1.0000      -0.593277       -16.1439
  50   1.0000      -0.588769       -16.0212
  51   1.0000      -0.586239       -15.9524
  52   1.0000      -0.575967       -15.6729
  53   1.0000      -0.569741       -15.5034
  54   1.0000      -0.568355       -15.4657
  55   1.0000      -0.556274       -15.1370
  56   1.0000      -0.550187       -14.9714
  57   1.0000      -0.544005       -14.8031
  58   1.0000      -0.539797       -14.6886
  59   1.0000      -0.534461       -14.5434
  60   1.0000      -0.528728       -14.3874
  61   1.0000      -0.520478       -14.1629
  62   1.0000      -0.516613       -14.0578
  63   1.0000      -0.510284       -13.8855
  64   1.0000      -0.462314       -12.5802
  65   1.0000      -0.460661       -12.5352
  66   1.0000      -0.456001       -12.4084
  67   1.0000      -0.446786       -12.1577
  68   1.0000      -0.443844       -12.0776
  69   1.0000      -0.441539       -12.0149
  70   1.0000      -0.436836       -11.8869
  71   1.0000      -0.434397       -11.8205
  72   1.0000      -0.430909       -11.7256
  73   1.0000      -0.430116       -11.7040
  74   1.0000      -0.427598       -11.6355
  75   1.0000      -0.423757       -11.5310
  76   1.0000      -0.421215       -11.4618
  77   1.0000      -0.414475       -11.2784
  78   1.0000      -0.413599       -11.2546
  79   1.0000      -0.408453       -11.1146
  80   1.0000      -0.402305       -10.9473
  81   1.0000      -0.401371       -10.9219
  82   1.0000      -0.401148       -10.9158
  83   1.0000      -0.393114       -10.6972
  84   1.0000      -0.391549       -10.6546
  85   1.0000      -0.390306       -10.6208
  86   1.0000      -0.385816       -10.4986
  87   1.0000      -0.380956       -10.3663
  88   1.0000      -0.378834       -10.3086
  89   1.0000      -0.377475       -10.2716
  90   1.0000      -0.375961       -10.2304
  91   1.0000      -0.369377       -10.0513
  92   1.0000      -0.362978        -9.8771
  93   1.0000      -0.357299        -9.7226
  94   1.0000      -0.347420        -9.4538
  95   1.0000      -0.325430        -8.8554
  96   1.0000      -0.295654        -8.0452
  97   1.0000      -0.230258        -6.2656
  98   1.0000      -0.214141        -5.8271
  99   1.0000      -0.212317        -5.7774
 100   0.0000      -0.008336        -0.2268
 101   0.0000       0.032755         0.8913
 102   0.0000       0.050343         1.3699
 103   0.0000       0.064326         1.7504
 104   0.0000       0.082940         2.2569

MULLIKEN ATOMIC CHARGES AND SPIN POPULATIONS
--------------------------------------------
   0 C :    0.211554    0.007664
   1 O :   -0.530798    0.006109
   2 O :   -0.538093    0.005636
   3 C :    0.352741    0.024092
   4 C :    0.260874    0.059578
   5 C :    0.281617    0.136429
   6 C :    0.242914    0.241674
   7 C :    0.210000    0.254438
   8 C :    0.283746    0.143274
   9 C :    0.439332    0.079705
  10 F :   -0.222483    0.000606
  11 F :   -0.226560    0.000460
  12 F :   -0.206736    0.001025
  13 F :   -0.210400    0.000303
  14 F :   -0.215982    0.001412
  15 F :   -0.216967    0.000757
  16 F :   -0.229008    0.002954
  17 F :   -0.233989    0.003400
  18 F :   -0.236374    0.004949
  19 F :   -0.232221    0.004370
  20 F :   -0.213534    0.003348
  21 F :   -0.212763    0.003196
  22 F :   -0.181455   -0.001014
  23 F :   -0.193873    0.016682
  24 F :   -0.181545   -0.001047
Sum of atomic charges         :   -2.0000000

LOEWDIN ATOMIC CHARGES AND SPIN POPULATIONS
-------------------------------------------
   0 C :   -0.699976    0.009889
   1 O :   -0.067717    0.005890
   2 O :   -0.070053    0.005296
   3 C :   -0.453810    0.027372
   4 C :   -0.472626    0.060427
   5 C :   -0.481763    0.127685
   6 C :   -0.486740    0.207243
   7 C :   -0.484751    0.222283
   8 C :   -0.494776    0.151854
   9 C :   -0.667975    0.067986
  10 F :    0.151103    0.001562
  11 F :    0.148655    0.001293
  12 F :    0.179455    0.002779
  13 F :    0.180185    0.001803
  14 F :    0.160821    0.006368
  15 F :    0.162631    0.005509
  16 F :    0.139344    0.011091
  17 F :    0.129513    0.011811
  18 F :    0.124703    0.013898
  19 F :    0.132818    0.012909
  20 F :    0.157113    0.008640
  21 F :    0.158872    0.008270
  22 F :    0.199662    0.001191
  23 F :    0.155830    0.025817
  24 F :    0.199484    0.001134

  Mayer bond orders larger than 0.100000
B(  0-C ,  1-O ) :   1.8401 B(  0-C ,  2-O ) :   1.8286 B(  0-C ,  3-C ) :   0.8335
B(  3-C ,  4-C ) :   0.9118 B(  3-C , 10-F ) :   1.0324 B(  3-C , 11-F ) :   1.0211
B(  4-C ,  5-C ) :   0.8818 B(  4-C , 12-F ) :   1.0545 B(  4-C , 13-F ) :   1.0439
B(  5-C ,  6-C ) :   0.8940 B(  5-C , 14-F ) :   1.0249 B(  5-C , 15-F ) :   1.0253
B(  6-C ,  7-C ) :   0.8985 B(  6-C , 16-F ) :   0.9967 B(  6-C , 17-F ) :   0.9844
B(  7-C ,  8-C ) :   0.9212 B(  7-C , 18-F ) :   0.9826 B(  7-C , 19-F ) :   0.9894
B(  8-C ,  9-C ) :   0.9477 B(  8-C , 20-F ) :   1.0215 B(  8-C , 21-F ) :   1.0219
B(  9-C , 22-F ) :   1.1214 B(  9-C , 23-F ) :   1.0694 B(  9-C , 24-F ) :   1.1208

Dispersion correction           -0.008172246
FINAL SINGLE POINT ENERGY     -1953.055394866779

DIPOLE MOMENT
-------------

Method             : SCF
Type of density    : Electron Density
Multiplicity       :   2
Irrep              :   0
Energy             : -1953.0472226212095848 Eh
Relativity type    :
Basis              : AO
                                X                 Y                 Z
Electronic contribution:    -17.610943288      -1.602291021       1.367449600
Nuclear contribution   :     10.147507216       0.838691771      -0.770063725
                        -----------------------------------------
Total Dipole Moment    :     -7.463436071      -0.763599250       0.597385875
                        -----------------------------------------
Magnitude (a.u.)       :      7.526143215
Magnitude (Debye)      :     19.129935771

VIBRATIONAL FREQUENCIES
-----------------------

Scaling factor for frequencies =  1.000000000  (already applied!)

     0:       0.00 cm**-1
     1:       0.00 cm**-1
     2:       0.00 cm**-1
     3:       0.00 cm**-1
     4:       0.00 cm**-1
     5:       0.00 cm**-1
     6:      22.84 cm**-1
     7:      34.18 cm**-1
     8:      36.30 cm**-1
     9:      40.39 cm**-1
    10:      47.35 cm**-1
    11:      59.19 cm**-1
    12:      63.58 cm**-1
    13:      72.69 cm**-1
    14:      96.93 cm**-1
    15:     103.00 cm**-1
    16:     129.61 cm**-1
    17:     161.67 cm**-1
    18:     183.15 cm**-1
    19:     206.08 cm**-1
    20:     213.31 cm**-1
    21:     230.38 cm**-1
    22:     236.63 cm**-1
    23:     247.51 cm**-1
    24:     253.56 cm**-1
    25:     262.13 cm**-1
    26:     269.95 cm**-1
    27:     321.34 cm**-1
    28:     327.37 cm**-1
    29:     328.23 cm**-1
    30:     332.79 cm**-1
    31:     342.01 cm**-1
    32:     352.02 cm**-1
    33:     366.00 cm**-1
    34:     370.30 cm**-1
    35:     379.75 cm**-1
    36:     424.52 cm**-1
    37:     467.18 cm**-1
    38:     475.14 cm**-1
    39:     513.26 cm**-1
    40:     521.09 cm**-1
    41:     537.32 cm**-1
    42:     555.26 cm**-1
    43:     571.57 cm**-1
    44:     582.67 cm**-1
    45:     601.13 cm**-1
    46:     612.43 cm**-1
    47:     625.99 cm**-1
    48:     643.99 cm**-1
    49:     685.08 cm**-1
    50:     689.73 cm**-1
    51:     737.37 cm**-1
    52:     750.80 cm**-1
    53:     803.65 cm**-1
    54:     838.59 cm**-1
    55:     881.86 cm**-1
    56:     886.63 cm**-1
    57:     963.41 cm**-1
    58:     984.33 cm**-1
    59:     996.52 cm**-1
    60:    1017.44 cm**-1
    61:    1025.14 cm**-1
    62:    1028.78 cm**-1
    63:    1052.02 cm**-1
    64:    1056.62 cm**-1
    65:    1088.25 cm**-1
    66:    1092.43 cm**-1
    67:    1109.92 cm**-1
    68:    1124.16 cm**-1
    69:    1154.68 cm**-1
    70:    1159.08 cm**-1
    71:    1175.14 cm**-1
    72:    1283.87 cm**-1
    73:    1381.93 cm**-1
    74:    1735.53 cm**-1

IR SPECTRUM
-----------

 Mode   freq       eps      Int      T**2         TX        TY        TZ
       cm**-1   L/(mol*cm) km/mol    a.u.
----------------------------------------------------------------------------
  6:     22.84   0.000152    0.77  0.002079  ( 0.044837 -0.005292  0.006370)
  7:     34.18   0.000380    1.92  0.003468  ( 0.018912  0.027377 -0.048590)
  8:     36.30   0.000614    3.10  0.005282  (-0.023444 -0.059811 -0.033986)
  9:     40.39   0.000812    4.10  0.006275  ( 0.072857 -0.002895  0.030954)
 10:     47.35   0.000141    0.71  0.000928  ( 0.028305  0.010344  0.004458)
 11:     59.19   0.000421    2.13  0.002217  ( 0.030712 -0.007068 -0.034986)
 12:     63.58   0.000097    0.49  0.000478  ( 0.014074 -0.016732  0.000302)
 13:     72.69   0.000281    1.42  0.001207  ( 0.033793 -0.007818 -0.001993)
 14:     96.93   0.001317    6.65  0.004239  ( 0.056857 -0.027524  0.015767)
 15:    103.00   0.000620    3.13  0.001878  (-0.042322 -0.007751  0.005207)
 16:    129.61   0.030985  156.59  0.074605  (-0.270965  0.033227 -0.008857)
 17:    161.67   0.015355   77.60  0.029640  ( 0.171233  0.012447 -0.012819)
 18:    183.15   0.000853    4.31  0.001454  ( 0.035565 -0.005963  0.012387)
 19:    206.08   0.001025    5.18  0.001552  ( 0.008131  0.004372  0.038294)
 20:    213.31   0.000085    0.43  0.000125  (-0.009985 -0.004964 -0.000661)
 21:    230.38   0.000789    3.99  0.001069  ( 0.024899  0.003753  0.020843)
 22:    236.63   0.021742  109.88  0.028673  ( 0.169306  0.002821 -0.000510)
 23:    247.51   0.000021    0.11  0.000026  (-0.004342  0.002354  0.001425)
 24:    253.56   0.000103    0.52  0.000126  (-0.010004  0.000395  0.005121)
 25:    262.13   0.000028    0.14  0.000034  (-0.004164 -0.000721 -0.003982)
 26:    269.95   0.000316    1.60  0.000366  ( 0.015311  0.002318 -0.011227)
 27:    321.34   0.003126   15.80  0.003036  ( 0.054907  0.004162 -0.001910)
 28:    327.37   0.000802    4.05  0.000764  ( 0.027635 -0.000512  0.000695)
 29:    328.23   0.012367   62.50  0.011758  (-0.108432  0.000247 -0.000009)
 30:    332.79   0.000020    0.10  0.000019  ( 0.000510 -0.004333  0.000131)
 31:    342.01   0.005678   28.69  0.005181  ( 0.071438 -0.008526  0.002211)
 32:    352.02   0.004888   24.70  0.004333  ( 0.065772 -0.000112 -0.002711)
 33:    366.00   0.000033    0.17  0.000028  ( 0.004703  0.000121 -0.002495)
 34:    370.30   0.000344    1.74  0.000290  (-0.010858  0.004138 -0.012435)
 35:    379.75   0.000298    1.50  0.000245  ( 0.013563 -0.007058  0.003305)
 36:    424.52   0.000019    0.10  0.000014  ( 0.003355  0.000498  0.001681)
 37:    467.18   0.000449    2.27  0.000300  (-0.011206 -0.012196 -0.005054)
 38:    475.14   0.000370    1.87  0.000243  (-0.005733 -0.003551  0.014048)
 39:    513.26   0.003589   18.14  0.002182  ( 0.046145 -0.004875  0.005389)
 40:    521.09   0.000081    0.41  0.000049  ( 0.004646  0.000580 -0.005183)
 41:    537.32   0.002635   13.32  0.001530  (-0.023802 -0.027309  0.014762)
 42:    555.26   0.001088    5.50  0.000612  ( 0.023329  0.007725  0.002796)
 43:    571.57   0.005286   26.71  0.002886  (-0.050394  0.017351 -0.006727)
 44:    582.67   0.003492   17.65  0.001870  (-0.037378 -0.017355  0.013112)
 45:    601.13   0.001027    5.19  0.000533  (-0.021872 -0.002557 -0.006961)
 46:    612.43   0.002438   12.32  0.001242  ( 0.033266  0.009171  0.007173)
 47:    625.99   0.015953   80.62  0.007953  ( 0.088702 -0.008856  0.002566)
 48:    643.99   0.076272  385.45  0.036959  ( 0.192080  0.007774 -0.002049)
 49:    685.08   0.057710  291.64  0.026287  ( 0.161999 -0.004780 -0.004582)
 50:    689.73   0.011512   58.18  0.005208  (-0.071505  0.008130 -0.005417)
 51:    737.37   0.011501   58.12  0.004867  (-0.069492  0.005938  0.001712)
 52:    750.80   0.025463  128.68  0.010583  ( 0.099013 -0.027894 -0.001385)
 53:    803.65   0.030703  155.16  0.011922  (-0.092331 -0.046441  0.035222)
 54:    838.59   0.043343  219.04  0.016129  (-0.126392  0.012368  0.001189)
 55:    881.86   0.005097   25.76  0.001804  ( 0.039324 -0.006328  0.014739)
 56:    886.63   0.033966  171.65  0.011955  (-0.108346  0.014194  0.003831)
 57:    963.41   0.080878  408.72  0.026198  ( 0.135359  0.053204 -0.071029)
 58:    984.33   0.022922  115.84  0.007267  ( 0.082120  0.016972 -0.015341)
 59:    996.52   0.083081  419.86  0.026017  ( 0.146567  0.066236  0.012171)
 60:   1017.44   0.228643  1155.47  0.070128  (-0.229669  0.128891 -0.027691)
 61:   1025.14   0.015152   76.57  0.004612  ( 0.015171  0.023335  0.061950)
 62:   1028.78   0.038195  193.02  0.011586  ( 0.022187 -0.006581 -0.105121)
 63:   1052.02   0.091964  464.75  0.027279  ( 0.079335 -0.068552 -0.127617)
 64:   1056.62   0.209826  1060.37  0.061971  (-0.187017  0.144247 -0.078664)
 65:   1088.25   0.046995  237.49  0.013476  ( 0.110900  0.000627  0.034307)
 66:   1092.43   0.122581  619.47  0.035017  (-0.018301 -0.118504 -0.143660)
 67:   1109.92   0.096628  488.32  0.027168  ( 0.019104  0.046719 -0.156908)
 68:   1124.16   0.043164  218.13  0.011982  (-0.043282  0.100366  0.005948)
 69:   1154.68   0.170193  860.09  0.045996  (-0.212036 -0.031450  0.006915)
 70:   1159.08   0.113336  572.75  0.030514  (-0.013464 -0.004062  0.174115)
 71:   1175.14   0.174227  880.47  0.046267  (-0.208741 -0.047481 -0.020963)
 72:   1283.87   0.144435  729.91  0.035107  ( 0.181525  0.043210 -0.016987)
 73:   1381.93   0.116791  590.22  0.026373  (-0.159613 -0.021757  0.020584)
 74:   1735.53   0.160576  811.49  0.028873  ( 0.008081 -0.106603 -0.132074)

--------------------------
THERMOCHEMISTRY AT 298.15K
--------------------------

Temperature         ...   298.15 K
Pressure            ...     1.00 atm
Total Mass          ...   413.06 AMU
Quasi RRHO          ...     True
Cut-Off Frequency   ...     1.00 cm^-1

Throughout the following assumptions are being made:
  (1) The electronic state is orbitally nondegenerate
      but the spin degeneracy is treated
  (2) There are no thermally accessible electronically excited states
  (3) Hindered rotations indicated by low frequency modes are not
      treated as such but are treated as vibrations and this may
      cause some error
  (4) All equations used are the standard statistical mechanics
      equations for an ideal gas
  (5) All vibrations are strictly harmonic

freq.      22.84  E(vib)   ...       0.56
freq.      34.18  E(vib)   ...       0.54
freq.      36.30  E(vib)   ...       0.54
freq.      40.39  E(vib)   ...       0.54
freq.      47.35  E(vib)   ...       0.53
freq.      59.19  E(vib)   ...       0.51
freq.      63.58  E(vib)   ...       0.51
freq.      72.69  E(vib)   ...       0.49
freq.      96.93  E(vib)   ...       0.46
freq.     103.00  E(vib)   ...       0.46
freq.     129.61  E(vib)   ...       0.43
freq.     161.67  E(vib)   ...       0.39
freq.     183.15  E(vib)   ...       0.37
freq.     206.08  E(vib)   ...       0.35
freq.     213.31  E(vib)   ...       0.34
freq.     230.38  E(vib)   ...       0.32
freq.     236.63  E(vib)   ...       0.32
freq.     247.51  E(vib)   ...       0.31
freq.     253.56  E(vib)   ...       0.30
freq.     262.13  E(vib)   ...       0.29
freq.     269.95  E(vib)   ...       0.29
freq.     321.34  E(vib)   ...       0.25
freq.     327.37  E(vib)   ...       0.24
freq.     328.23  E(vib)   ...       0.24
freq.     332.79  E(vib)   ...       0.24
freq.     342.01  E(vib)   ...       0.23
freq.     352.02  E(vib)   ...       0.23
freq.     366.00  E(vib)   ...       0.22
freq.     370.30  E(vib)   ...       0.21
freq.     379.75  E(vib)   ...       0.21
freq.     424.52  E(vib)   ...       0.18
freq.     467.18  E(vib)   ...       0.16
freq.     475.14  E(vib)   ...       0.15
freq.     513.26  E(vib)   ...       0.13
freq.     521.09  E(vib)   ...       0.13
freq.     537.32  E(vib)   ...       0.12
freq.     555.26  E(vib)   ...       0.12
freq.     571.57  E(vib)   ...       0.11
freq.     582.67  E(vib)   ...       0.11
freq.     601.13  E(vib)   ...       0.10
freq.     612.43  E(vib)   ...       0.10
freq.     625.99  E(vib)   ...       0.09
freq.     643.99  E(vib)   ...       0.09
freq.     685.08  E(vib)   ...       0.07
freq.     689.73  E(vib)   ...       0.07
freq.     737.37  E(vib)   ...       0.06
freq.     750.80  E(vib)   ...       0.06
freq.     803.65  E(vib)   ...       0.05
freq.     838.59  E(vib)   ...       0.04
freq.     881.86  E(vib)   ...       0.04
freq.     886.63  E(vib)   ...       0.04
freq.     963.41  E(vib)   ...       0.03
freq.     984.33  E(vib)   ...       0.02
freq.     996.52  E(vib)   ...       0.02
freq.    1017.44  E(vib)   ...       0.02
freq.    1025.14  E(vib)   ...       0.02
freq.    1028.78  E(vib)   ...       0.02
freq.    1052.02  E(vib)   ...       0.02
freq.    1056.62  E(vib)   ...       0.02
freq.    1088.25  E(vib)   ...       0.02
freq.    1092.43  E(vib)   ...       0.02
freq.    1109.92  E(vib)   ...       0.02
freq.    1124.16  E(vib)   ...       0.01
freq.    1154.68  E(vib)   ...       0.01
freq.    1159.08  E(vib)   ...       0.01
freq.    1175.14  E(vib)   ...       0.01
freq.    1283.87  E(vib)   ...       0.01
freq.    1381.93  E(vib)   ...       0.01
freq.    1735.53  E(vib)   ...       0.00

------------
INNER ENERGY
------------

The inner energy is: U= E(el) + E(ZPE) + E(vib) + E(rot) + E(trans)
    E(el)   - is the total energy from the electronic structure calculation
              = E(kin-el) + E(nuc-el) + E(el-el) + E(nuc-nuc)
    E(ZPE)  - the the zero temperature vibrational energy from the frequency calculation
    E(vib)  - the the finite temperature correction to E(ZPE) due to population
              of excited vibrational states
    E(rot)  - is the rotational thermal energy
    E(trans)- is the translational thermal energy

Summary of contributions to the inner energy U:
Electronic energy                ...  -1953.05539487 Eh
Zero point energy                ...      0.09095523 Eh      57.08 kcal/mol
Thermal vibrational correction   ...      0.02106923 Eh      13.22 kcal/mol
Thermal rotational correction    ...      0.00141627 Eh       0.89 kcal/mol
Thermal translational correction ...      0.00141627 Eh       0.89 kcal/mol
-----------------------------------------------------------------------
Total thermal energy                  -1952.94053787 Eh

Summary of corrections to the electronic energy:
(perhaps to be used in another calculation)
Total thermal correction                  0.02390177 Eh      15.00 kcal/mol
Non-thermal (ZPE) correction              0.09095523 Eh      57.08 kcal/mol
-----------------------------------------------------------------------
Total correction                          0.11485700 Eh      72.07 kcal/mol

--------
ENTHALPY
--------

The enthalpy is H = U + kB*T
                kB is Boltzmann's constant
Total thermal energy              ...  -1952.94053787 Eh
Thermal Enthalpy correction       ...      0.00094421 Eh       0.59 kcal/mol
-----------------------------------------------------------------------
Total Enthalpy                    ...  -1952.93959366 Eh

Note: Only C1 symmetry has been detected, increase convergence thresholds
      if your molecule has a higher symmetry. Symmetry factor of 1.0 is
      used for the rotational entropy correction.

Note: Rotational entropy computed according to Herzberg
Infrared and Raman Spectra, Chapter V,1, Van Nostrand Reinhold, 1945
Point Group:  C1, Symmetry Number:   1
Rotational constants in cm-1:     0.021941     0.003421     0.003394

Vibrational entropy computed according to the QRRHO of S. Grimme
Chem.Eur.J. 2012 18 9955 using a reference frequency of 100.0 cm-1

-------
ENTROPY
-------

The entropy contributions are T*S = T*(S(el)+S(vib)+S(rot)+S(trans))
     S(el)   - electronic entropy
     S(vib)  - vibrational entropy
     S(rot)  - rotational entropy
     S(trans)- translational entropy
The entropies will be listed as multiplied by the temperature to get
units of energy

Electronic entropy                ...      0.00065446 Eh      0.41 kcal/mol
Vibrational entropy               ...      0.03775689 Eh     23.69 kcal/mol

                             ****ORCA TERMINATED NORMALLY****
TOTAL RUN TIME: 0 days 0 hours 26 minutes 22 seconds 196 msec
