                         Program Version 6.0.1  -  RELEASE   -
|  1> !B3LYP def2-TZVP freq d3 TightSCF SlowConv defgrid2
|  2>
|  3> %pal
|  4> nprocs 20
|  5> end
|  6>
|  7> %scf
|  8> MaxIter 1500
|  9> end
| 10>
| 11> %maxcore 8000
| 12>
| 13> !CPCM
| 14> %cpcm smd true
| 15> SMDsolvent "ACETONITRILE"
| 16> end
| 17>
| 18> * xyz 0 2
| 19> 6        4.663148000     -0.317370000      0.104666000
| 20> 8        5.068100000     -1.183459000     -0.810531000
| 21> 8        5.285842000      0.593055000      0.569619000
| 22> 6        3.198726000     -0.601190000      0.540223000
| 23> 6        2.186735000      0.233165000     -0.308005000
| 24> 6        0.691273000     -0.199522000     -0.137850000
| 25> 6       -0.358839000      0.868118000     -0.602710000
| 26> 6       -1.751030000      0.318793000     -0.702224000
| 27> 6       -2.845989000      0.532479000      0.291340000
| 28> 6       -4.008098000     -0.501397000      0.183079000
| 29> 9        2.898404000     -1.913138000      0.410924000
| 30> 9        3.070129000     -0.257047000      1.836571000
| 31> 9        2.326692000      1.530170000      0.034505000
| 32> 9        2.520453000      0.098526000     -1.610135000
| 33> 9        0.489878000     -1.318830000     -0.865650000
| 34> 9        0.445720000     -0.481055000      1.157593000
| 35> 9       -0.347938000      1.896262000      0.274668000
| 36> 9        0.028327000      1.323529000     -1.821966000
| 37> 9       -2.043038000     -0.324647000     -1.816303000
| 38> 9       -3.404966000      1.771766000      0.160014000
| 39> 9       -2.346922000      0.456264000      1.550173000
| 40> 9       -3.529861000     -1.745443000      0.275460000
| 41> 9       -4.869464000     -0.297786000      1.181194000
| 42> 9       -4.658019000     -0.369908000     -0.974532000
| 43> 1        5.987058000     -0.974366000     -1.071823000
| 44> *
| 45>
| 46>                          ****END OF INPUT****

CARTESIAN COORDINATES (ANGSTROEM)
---------------------------------
  C      4.663148   -0.317370    0.104666
  O      5.068100   -1.183459   -0.810531
  O      5.285842    0.593055    0.569619
  C      3.198726   -0.601190    0.540223
  C      2.186735    0.233165   -0.308005
  C      0.691273   -0.199522   -0.137850
  C     -0.358839    0.868118   -0.602710
  C     -1.751030    0.318793   -0.702224
  C     -2.845989    0.532479    0.291340
  C     -4.008098   -0.501397    0.183079
  F      2.898404   -1.913138    0.410924
  F      3.070129   -0.257047    1.836571
  F      2.326692    1.530170    0.034505
  F      2.520453    0.098526   -1.610135
  F      0.489878   -1.318830   -0.865650
  F      0.445720   -0.481055    1.157593
  F     -0.347938    1.896262    0.274668
  F      0.028327    1.323529   -1.821966
  F     -2.043038   -0.324647   -1.816303
  F     -3.404966    1.771766    0.160014
  F     -2.346922    0.456264    1.550173
  F     -3.529861   -1.745443    0.275460
  F     -4.869464   -0.297786    1.181194
  F     -4.658019   -0.369908   -0.974532
  H      5.987058   -0.974366   -1.071823

 Total Charge           Charge          ....    0
 Multiplicity           Mult            ....    2
 Number of Electrons    NEL             ....  191
 Basis Dimension        Dim             ....  750

ORBITAL ENERGIES
----------------
                 SPIN UP ORBITALS
  NO   OCC          E(Eh)            E(eV)
   0   1.0000     -24.761487      -673.7943
   1   1.0000     -24.744248      -673.3252
   2   1.0000     -24.743943      -673.3169
   3   1.0000     -24.743277      -673.2988
   4   1.0000     -24.743250      -673.2980
   5   1.0000     -24.742494      -673.2775
   6   1.0000     -24.742349      -673.2735
   7   1.0000     -24.741865      -673.2604
   8   1.0000     -24.740430      -673.2213
   9   1.0000     -24.738438      -673.1671
  10   1.0000     -24.737574      -673.1436
  11   1.0000     -24.734689      -673.0651
  12   1.0000     -24.733025      -673.0198
  13   1.0000     -24.732315      -673.0005
  14   1.0000     -19.207437      -522.6609
  15   1.0000     -19.154488      -521.2201
  16   1.0000     -10.459660      -284.6218
  17   1.0000     -10.407961      -283.2150
  18   1.0000     -10.405280      -283.1421
  19   1.0000     -10.405126      -283.1379
  20   1.0000     -10.404814      -283.1294
  21   1.0000     -10.396020      -282.8901
  22   1.0000     -10.346425      -281.5405
  23   1.0000     -10.331413      -281.1320
  24   1.0000      -1.351940       -36.7882
  25   1.0000      -1.330580       -36.2069
  26   1.0000      -1.315056       -35.7845
  27   1.0000      -1.306779       -35.5593
  28   1.0000      -1.302449       -35.4415
  29   1.0000      -1.300963       -35.4010
  30   1.0000      -1.298554       -35.3354
  31   1.0000      -1.262666       -34.3589
  32   1.0000      -1.262506       -34.3545
  33   1.0000      -1.260049       -34.2877
  34   1.0000      -1.252933       -34.0940
  35   1.0000      -1.247851       -33.9558
  36   1.0000      -1.243864       -33.8473
  37   1.0000      -1.242979       -33.8232
  38   1.0000      -1.146910       -31.2090
  39   1.0000      -1.062777       -28.9196
  40   1.0000      -0.861924       -23.4541
  41   1.0000      -0.838090       -22.8056
  42   1.0000      -0.811883       -22.0925
  43   1.0000      -0.779281       -21.2053
  44   1.0000      -0.735529       -20.0148
  45   1.0000      -0.703887       -19.1537
  46   1.0000      -0.677487       -18.4354
  47   1.0000      -0.668676       -18.1956
  48   1.0000      -0.645363       -17.5612
  49   1.0000      -0.643917       -17.5219
  50   1.0000      -0.639522       -17.4023
  51   1.0000      -0.633670       -17.2430
  52   1.0000      -0.632793       -17.2192
  53   1.0000      -0.625370       -17.0172
  54   1.0000      -0.612935       -16.6788
  55   1.0000      -0.610483       -16.6121
  56   1.0000      -0.604491       -16.4490
  57   1.0000      -0.599192       -16.3048
  58   1.0000      -0.593174       -16.1411
  59   1.0000      -0.589535       -16.0421
  60   1.0000      -0.580868       -15.8062
  61   1.0000      -0.574148       -15.6234
  62   1.0000      -0.539753       -14.6874
  63   1.0000      -0.520993       -14.1769
  64   1.0000      -0.514564       -14.0020
  65   1.0000      -0.508850       -13.8465
  66   1.0000      -0.506855       -13.7922
  67   1.0000      -0.502782       -13.6814
  68   1.0000      -0.500406       -13.6167
  69   1.0000      -0.498953       -13.5772
  70   1.0000      -0.495739       -13.4897
  71   1.0000      -0.488853       -13.3024
  72   1.0000      -0.487689       -13.2707
  73   1.0000      -0.482485       -13.1291
  74   1.0000      -0.478373       -13.0172
  75   1.0000      -0.474246       -12.9049
  76   1.0000      -0.469822       -12.7845
  77   1.0000      -0.468081       -12.7371
  78   1.0000      -0.465309       -12.6617
  79   1.0000      -0.462067       -12.5735
  80   1.0000      -0.461258       -12.5515
  81   1.0000      -0.459663       -12.5081
  82   1.0000      -0.452118       -12.3028
  83   1.0000      -0.448156       -12.1949
  84   1.0000      -0.446991       -12.1632
  85   1.0000      -0.444261       -12.0890
  86   1.0000      -0.442619       -12.0443
  87   1.0000      -0.441541       -12.0149
  88   1.0000      -0.439304       -11.9541
  89   1.0000      -0.431135       -11.7318
  90   1.0000      -0.410281       -11.1643
  91   1.0000      -0.388501       -10.5717
  92   1.0000      -0.363354        -9.8874
  93   1.0000      -0.360074        -9.7981
  94   1.0000      -0.318720        -8.6728
  95   1.0000      -0.276802        -7.5322
  96   0.0000      -0.051116        -1.3909
  97   0.0000      -0.004115        -0.1120
  98   0.0000       0.024335         0.6622
  99   0.0000       0.034332         0.9342
 100   0.0000       0.039426         1.0728

                 SPIN DOWN ORBITALS
  NO   OCC          E(Eh)            E(eV)
   0   1.0000     -24.756864      -673.6685
   1   1.0000     -24.744198      -673.3239
   2   1.0000     -24.743882      -673.3152
   3   1.0000     -24.743246      -673.2980
   4   1.0000     -24.743229      -673.2975
   5   1.0000     -24.742496      -673.2775
   6   1.0000     -24.742309      -673.2725
   7   1.0000     -24.741856      -673.2601
   8   1.0000     -24.740097      -673.2123
   9   1.0000     -24.737713      -673.1474
  10   1.0000     -24.736910      -673.1255
  11   1.0000     -24.734690      -673.0651
  12   1.0000     -24.733022      -673.0197
  13   1.0000     -24.730682      -672.9561
  14   1.0000     -19.207434      -522.6609
  15   1.0000     -19.154476      -521.2198
  16   1.0000     -10.459570      -284.6194
  17   1.0000     -10.408829      -283.2386
  18   1.0000     -10.405847      -283.1575
  19   1.0000     -10.404773      -283.1283
  20   1.0000     -10.404577      -283.1229
  21   1.0000     -10.395978      -282.8889
  22   1.0000     -10.346414      -281.5402
  23   1.0000     -10.316989      -280.7395
  24   1.0000      -1.351688       -36.7813
  25   1.0000      -1.330092       -36.1936
  26   1.0000      -1.313457       -35.7410
  27   1.0000      -1.305026       -35.5116
  28   1.0000      -1.301611       -35.4186
  29   1.0000      -1.299778       -35.3688
  30   1.0000      -1.290962       -35.1289
  31   1.0000      -1.262386       -34.3513
  32   1.0000      -1.262251       -34.3476
  33   1.0000      -1.259919       -34.2841
  34   1.0000      -1.252508       -34.0825
  35   1.0000      -1.247019       -33.9331
  36   1.0000      -1.243848       -33.8468
  37   1.0000      -1.240318       -33.7508
  38   1.0000      -1.146896       -31.2086
  39   1.0000      -1.062757       -28.9191
  40   1.0000      -0.849617       -23.1193
  41   1.0000      -0.834065       -22.6961
  42   1.0000      -0.810550       -22.0562
  43   1.0000      -0.774293       -21.0696
  44   1.0000      -0.731473       -19.9044
  45   1.0000      -0.702129       -19.1059
  46   1.0000      -0.673688       -18.3320
  47   1.0000      -0.668400       -18.1881
  48   1.0000      -0.643267       -17.5042
  49   1.0000      -0.642011       -17.4700
  50   1.0000      -0.636791       -17.3280
  51   1.0000      -0.633057       -17.2263
  52   1.0000      -0.632179       -17.2025
  53   1.0000      -0.624750       -17.0003
  54   1.0000      -0.611793       -16.6477
  55   1.0000      -0.608346       -16.5539
  56   1.0000      -0.602590       -16.3973
  57   1.0000      -0.596922       -16.2431
  58   1.0000      -0.589491       -16.0409
  59   1.0000      -0.588057       -16.0018
  60   1.0000      -0.579073       -15.7574
  61   1.0000      -0.573918       -15.6171
  62   1.0000      -0.520974       -14.1764
  63   1.0000      -0.513327       -13.9683
  64   1.0000      -0.512510       -13.9461
  65   1.0000      -0.508462       -13.8360
  66   1.0000      -0.505299       -13.7499
  67   1.0000      -0.501603       -13.6493
  68   1.0000      -0.499552       -13.5935
  69   1.0000      -0.497580       -13.5398
  70   1.0000      -0.495166       -13.4741
  71   1.0000      -0.487576       -13.2676
  72   1.0000      -0.486078       -13.2269
  73   1.0000      -0.481819       -13.1110
  74   1.0000      -0.477344       -12.9892
  75   1.0000      -0.472916       -12.8687
  76   1.0000      -0.468093       -12.7375
  77   1.0000      -0.467407       -12.7188
  78   1.0000      -0.463558       -12.6141
  79   1.0000      -0.460822       -12.5396
  80   1.0000      -0.459962       -12.5162
  81   1.0000      -0.458496       -12.4763
  82   1.0000      -0.451611       -12.2890
  83   1.0000      -0.446588       -12.1523
  84   1.0000      -0.446152       -12.1404
  85   1.0000      -0.443673       -12.0729
  86   1.0000      -0.442276       -12.0350
  87   1.0000      -0.440517       -11.9871
  88   1.0000      -0.437656       -11.9092
  89   1.0000      -0.430362       -11.7108
  90   1.0000      -0.408571       -11.1178
  91   1.0000      -0.386171       -10.5083
  92   1.0000      -0.361934        -9.8487
  93   1.0000      -0.359147        -9.7729
  94   1.0000      -0.318294        -8.6612
  95   0.0000      -0.133250        -3.6259
  96   0.0000      -0.049956        -1.3594
  97   0.0000      -0.001524        -0.0415
  98   0.0000       0.027249         0.7415
  99   0.0000       0.036231         0.9859

MULLIKEN ATOMIC CHARGES AND SPIN POPULATIONS
--------------------------------------------
   0 C :    0.227599    0.000418
   1 O :   -0.347494    0.000061
   2 O :   -0.284995    0.000465
   3 C :    0.411785    0.001772
   4 C :    0.305993    0.004462
   5 C :    0.316817    0.027831
   6 C :    0.390943   -0.017001
   7 C :    0.121807    0.825612
   8 C :    0.345841    0.003667
   9 C :    0.478174   -0.001966
  10 F :   -0.177439    0.000020
  11 F :   -0.172732    0.000089
  12 F :   -0.171453   -0.000047
  13 F :   -0.173671    0.000218
  14 F :   -0.174043    0.000769
  15 F :   -0.173144    0.000635
  16 F :   -0.171012    0.006079
  17 F :   -0.173998    0.013744
  18 F :   -0.139187    0.089466
  19 F :   -0.177968    0.030015
  20 F :   -0.173411    0.011598
  21 F :   -0.158817    0.000565
  22 F :   -0.153922    0.000342
  23 F :   -0.156169    0.001125
  24 H :    0.380498    0.000060
Sum of atomic charges         :    0.0000000

LOEWDIN ATOMIC CHARGES AND SPIN POPULATIONS
-------------------------------------------
   0 C :   -0.489108    0.000442
   1 O :    0.154904    0.000069
   2 O :    0.135912    0.000398
   3 C :   -0.449392    0.001738
   4 C :   -0.452483    0.004894
   5 C :   -0.450345    0.022460
   6 C :   -0.474582    0.061646
   7 C :   -0.159125    0.653253
   8 C :   -0.474487    0.062476
   9 C :   -0.658277    0.002278
  10 F :    0.208623   -0.000020
  11 F :    0.215179    0.000103
  12 F :    0.223473   -0.000048
  13 F :    0.219735    0.000268
  14 F :    0.220999    0.001149
  15 F :    0.224220    0.000920
  16 F :    0.219635    0.006638
  17 F :    0.210065    0.014389
  18 F :    0.269696    0.114539
  19 F :    0.191052    0.034435
  20 F :    0.209234    0.014847
  21 F :    0.223158    0.001130
  22 F :    0.225153    0.000498
  23 F :    0.224211    0.001472
  24 H :    0.232548    0.000028

  Mayer bond orders larger than 0.100000
B(  0-C ,  1-O ) :   1.3076 B(  0-C ,  2-O ) :   2.0841 B(  0-C ,  3-C ) :   0.9003
B(  1-O , 24-H ) :   0.8218 B(  3-C ,  4-C ) :   0.9394 B(  3-C , 10-F ) :   1.0888
B(  3-C , 11-F ) :   1.1052 B(  4-C ,  5-C ) :   0.9242 B(  4-C , 12-F ) :   1.0813
B(  4-C , 13-F ) :   1.0756 B(  5-C ,  6-C ) :   0.9235 B(  5-C , 14-F ) :   1.0745
B(  5-C , 15-F ) :   1.0815 B(  6-C ,  7-C ) :   1.0271 B(  6-C , 16-F ) :   1.0914
B(  6-C , 17-F ) :   1.0752 B(  7-C ,  8-C ) :   1.0150 B(  7-C , 18-F ) :   1.1342
B(  8-C ,  9-C ) :   0.9652 B(  8-C , 19-F ) :   1.0772 B(  8-C , 20-F ) :   1.0720
B(  9-C , 21-F ) :   1.1456 B(  9-C , 22-F ) :   1.1499 B(  9-C , 23-F ) :   1.1456

Dispersion correction           -0.042900320
FINAL SINGLE POINT ENERGY     -1853.736727873207

DIPOLE MOMENT
-------------

Method             : SCF
Type of density    : Electron Density
Multiplicity       :   2
Irrep              :   0
Energy             : -1853.6938275529685143 Eh
Relativity type    :
Basis              : AO
                                X                 Y                 Z
Electronic contribution:    -14.197319539       0.597355313       0.387980690
Nuclear contribution   :     14.925317559      -1.246924170      -1.317040961
                        -----------------------------------------
Total Dipole Moment    :      0.727998020      -0.649568857      -0.929060270
                        -----------------------------------------
Magnitude (a.u.)       :      1.347246749
Magnitude (Debye)      :      3.424429092

VIBRATIONAL FREQUENCIES
-----------------------

Scaling factor for frequencies =  1.000000000  (already applied!)

     0:       0.00 cm**-1
     1:       0.00 cm**-1
     2:       0.00 cm**-1
     3:       0.00 cm**-1
     4:       0.00 cm**-1
     5:       0.00 cm**-1
     6:      13.30 cm**-1
     7:      23.45 cm**-1
     8:      35.12 cm**-1
     9:      41.83 cm**-1
    10:      43.71 cm**-1
    11:      57.20 cm**-1
    12:      69.91 cm**-1
    13:      75.42 cm**-1
    14:     100.03 cm**-1
    15:     122.55 cm**-1
    16:     155.23 cm**-1
    17:     166.11 cm**-1
    18:     187.70 cm**-1
    19:     201.19 cm**-1
    20:     206.10 cm**-1
    21:     221.65 cm**-1
    22:     240.08 cm**-1
    23:     246.62 cm**-1
    24:     260.71 cm**-1
    25:     278.82 cm**-1
    26:     290.56 cm**-1
    27:     308.94 cm**-1
    28:     322.66 cm**-1
    29:     342.09 cm**-1
    30:     355.94 cm**-1
    31:     366.37 cm**-1
    32:     371.48 cm**-1
    33:     375.03 cm**-1
    34:     389.53 cm**-1
    35:     439.48 cm**-1
    36:     470.41 cm**-1
    37:     499.06 cm**-1
    38:     505.36 cm**-1
    39:     524.72 cm**-1
    40:     542.48 cm**-1
    41:     564.09 cm**-1
    42:     582.35 cm**-1
    43:     589.78 cm**-1
    44:     597.62 cm**-1
    45:     628.77 cm**-1
    46:     643.99 cm**-1
    47:     666.93 cm**-1
    48:     699.48 cm**-1
    49:     711.61 cm**-1
    50:     753.78 cm**-1
    51:     777.00 cm**-1
    52:     871.99 cm**-1
    53:     990.40 cm**-1
    54:    1041.14 cm**-1
    55:    1097.02 cm**-1
    56:    1103.28 cm**-1
    57:    1118.88 cm**-1
    58:    1133.41 cm**-1
    59:    1138.47 cm**-1
    60:    1141.53 cm**-1
    61:    1151.58 cm**-1
    62:    1158.91 cm**-1
    63:    1169.57 cm**-1
    64:    1174.15 cm**-1
    65:    1176.65 cm**-1
    66:    1197.77 cm**-1
    67:    1247.81 cm**-1
    68:    1267.96 cm**-1
    69:    1279.63 cm**-1
    70:    1350.98 cm**-1
    71:    1392.20 cm**-1
    72:    1405.03 cm**-1
    73:    1822.05 cm**-1
    74:    3608.95 cm**-1

IR SPECTRUM
-----------

 Mode   freq       eps      Int      T**2         TX        TY        TZ
       cm**-1   L/(mol*cm) km/mol    a.u.
----------------------------------------------------------------------------
  6:     13.30   0.000243    1.23  0.005713  (-0.026188 -0.067955  0.020220)
  7:     23.45   0.000002    0.01  0.000029  ( 0.001981  0.004479  0.002182)
  8:     35.12   0.000058    0.29  0.000513  ( 0.009651 -0.010743  0.017440)
  9:     41.83   0.000175    0.88  0.001303  (-0.001715  0.030134 -0.019795)
 10:     43.71   0.000106    0.53  0.000755  (-0.015406 -0.003754 -0.022449)
 11:     57.20   0.000353    1.78  0.001925  (-0.018321  0.018572 -0.035280)
 12:     69.91   0.000078    0.39  0.000347  (-0.010671 -0.009074 -0.012267)
 13:     75.42   0.000066    0.33  0.000273  (-0.004053 -0.005376 -0.015097)
 14:    100.03   0.000324    1.64  0.001012  ( 0.025786 -0.010564  0.015341)
 15:    122.55   0.000305    1.54  0.000778  (-0.000842 -0.012187 -0.025069)
 16:    155.23   0.000072    0.36  0.000144  ( 0.004854 -0.010004  0.004487)
 17:    166.11   0.000122    0.62  0.000230  ( 0.008087  0.000261  0.012817)
 18:    187.70   0.000151    0.76  0.000252  (-0.007511  0.005080  0.013015)
 19:    201.19   0.001596    8.06  0.002475  ( 0.024733 -0.005020  0.042877)
 20:    206.10   0.001210    6.11  0.001832  ( 0.027413 -0.030337 -0.012648)
 21:    221.65   0.000205    1.04  0.000289  (-0.002398  0.012107 -0.011674)
 22:    240.08   0.000017    0.09  0.000022  (-0.004142 -0.002022  0.001034)
 23:    246.62   0.000094    0.47  0.000118  ( 0.006945 -0.002117 -0.008103)
 24:    260.71   0.000416    2.10  0.000498  ( 0.021412  0.006318 -0.000081)
 25:    278.82   0.000768    3.88  0.000860  (-0.026381  0.003832  0.012206)
 26:    290.56   0.000839    4.24  0.000901  ( 0.026651 -0.001464 -0.013732)
 27:    308.94   0.000008    0.04  0.000008  (-0.002042  0.001887  0.000772)
 28:    322.66   0.000038    0.19  0.000037  ( 0.003597  0.000076  0.004893)
 29:    342.09   0.000336    1.70  0.000307  (-0.015400 -0.003606 -0.007529)
 30:    355.94   0.000053    0.27  0.000046  ( 0.006151 -0.000422 -0.002884)
 31:    366.37   0.000295    1.49  0.000251  (-0.006697 -0.007971 -0.011957)
 32:    371.48   0.000221    1.12  0.000185  (-0.007870 -0.009370 -0.005972)
 33:    375.03   0.000634    3.21  0.000528  (-0.021344 -0.008348 -0.001610)
 34:    389.53   0.001217    6.15  0.000975  (-0.029238  0.009981  0.004534)
 35:    439.48   0.000030    0.15  0.000021  (-0.002635 -0.003624 -0.001131)
 36:    470.41   0.000619    3.13  0.000410  ( 0.007195 -0.008416 -0.016966)
 37:    499.06   0.004673   23.62  0.002922  (-0.035862 -0.036470  0.017496)
 38:    505.36   0.004560   23.04  0.002816  (-0.033812 -0.006816  0.040324)
 39:    524.72   0.007085   35.80  0.004214  (-0.061910  0.015768  0.011494)
 40:    542.48   0.002060   10.41  0.001185  (-0.031795 -0.006802 -0.011296)
 41:    564.09   0.013241   66.91  0.007325  (-0.001389 -0.054627  0.065871)
 42:    582.35   0.011268   56.94  0.006038  ( 0.062685 -0.028171  0.036263)
 43:    589.78   0.002038   10.30  0.001078  ( 0.030982 -0.005601 -0.009325)
 44:    597.62   0.003809   19.25  0.001989  ( 0.003757  0.009224 -0.043470)
 45:    628.77   0.056152  283.77  0.027868  ( 0.145425 -0.076124  0.030417)
 46:    643.99   0.004172   21.08  0.002022  (-0.018175 -0.006262  0.040647)
 47:    666.93   0.005595   28.28  0.002618  ( 0.042415  0.025924 -0.012130)
 48:    699.48   0.003872   19.57  0.001727  ( 0.031754  0.022909  0.013939)
 49:    711.61   0.014173   71.62  0.006215  ( 0.074485  0.022263 -0.013105)
 50:    753.78   0.005961   30.12  0.002468  (-0.001190  0.022208 -0.044421)
 51:    777.00   0.009491   47.96  0.003812  (-0.052454 -0.005275  0.032134)
 52:    871.99   0.006577   33.24  0.002354  (-0.019226 -0.015061  0.041919)
 53:    990.40   0.016596   83.87  0.005229  (-0.044430 -0.038073  0.042492)
 54:   1041.14   0.052730  266.48  0.015805  ( 0.053158 -0.113450  0.010404)
 55:   1097.02   0.020968  105.96  0.005965  (-0.058146  0.011855 -0.049428)
 56:   1103.28   0.062877  317.75  0.017785  ( 0.010411  0.119944 -0.057357)
 57:   1118.88   0.023524  118.88  0.006561  (-0.012620 -0.039358  0.069661)
 58:   1133.41   0.035682  180.32  0.009825  ( 0.044829 -0.004841 -0.088269)
 59:   1138.47   0.012226   61.78  0.003351  (-0.008528 -0.000293 -0.057257)
 60:   1141.53   0.091939  464.62  0.025134  ( 0.016071 -0.032996 -0.154229)
 61:   1151.58   0.241977  1222.85  0.065573  ( 0.000256 -0.191050 -0.170506)
 62:   1158.91   0.004264   21.55  0.001148  ( 0.025200  0.001397 -0.022612)
 63:   1169.57   0.069200  349.71  0.018464  ( 0.088028 -0.091542  0.048320)
 64:   1174.15   0.033222  167.89  0.008830  (-0.012548 -0.017943  0.091379)
 65:   1176.65   0.005624   28.42  0.001492  ( 0.018899  0.000060  0.033682)
 66:   1197.77   0.007935   40.10  0.002067  (-0.023103  0.038568  0.006791)
 67:   1247.81   0.011384   57.53  0.002847  (-0.042273 -0.022337  0.023688)
 68:   1267.96   0.049110  248.18  0.012087  ( 0.085447  0.024447 -0.064714)
 69:   1279.63   0.004495   22.71  0.001096  ( 0.029076  0.011818  0.010537)
 70:   1350.98   0.000885    4.47  0.000204  (-0.011441 -0.003697 -0.007734)
 71:   1392.20   0.016384   82.80  0.003673  (-0.056197  0.020794 -0.009060)
 72:   1405.03   0.016502   83.40  0.003665  ( 0.003479 -0.031559 -0.051547)
 73:   1822.05   0.094579  477.97  0.016199  (-0.047079 -0.095779 -0.069344)
 74:   3608.95   0.051011  257.79  0.004411  (-0.058712  0.005727  0.030512)

--------------------------
THERMOCHEMISTRY AT 298.15K
--------------------------

Temperature         ...   298.15 K
Pressure            ...     1.00 atm
Total Mass          ...   395.07 AMU
Quasi RRHO          ...     True
Cut-Off Frequency   ...     1.00 cm^-1

Throughout the following assumptions are being made:
  (1) The electronic state is orbitally nondegenerate
      but the spin degeneracy is treated
  (2) There are no thermally accessible electronically excited states
  (3) Hindered rotations indicated by low frequency modes are not
      treated as such but are treated as vibrations and this may
      cause some error
  (4) All equations used are the standard statistical mechanics
      equations for an ideal gas
  (5) All vibrations are strictly harmonic

freq.      13.30  E(vib)   ...       0.57
freq.      23.45  E(vib)   ...       0.56
freq.      35.12  E(vib)   ...       0.54
freq.      41.83  E(vib)   ...       0.53
freq.      43.71  E(vib)   ...       0.53
freq.      57.20  E(vib)   ...       0.51
freq.      69.91  E(vib)   ...       0.50
freq.      75.42  E(vib)   ...       0.49
freq.     100.03  E(vib)   ...       0.46
freq.     122.55  E(vib)   ...       0.43
freq.     155.23  E(vib)   ...       0.40
freq.     166.11  E(vib)   ...       0.39
freq.     187.70  E(vib)   ...       0.36
freq.     201.19  E(vib)   ...       0.35
freq.     206.10  E(vib)   ...       0.35
freq.     221.65  E(vib)   ...       0.33
freq.     240.08  E(vib)   ...       0.31
freq.     246.62  E(vib)   ...       0.31
freq.     260.71  E(vib)   ...       0.30
freq.     278.82  E(vib)   ...       0.28
freq.     290.56  E(vib)   ...       0.27
freq.     308.94  E(vib)   ...       0.26
freq.     322.66  E(vib)   ...       0.25
freq.     342.09  E(vib)   ...       0.23
freq.     355.94  E(vib)   ...       0.22
freq.     366.37  E(vib)   ...       0.22
freq.     371.48  E(vib)   ...       0.21
freq.     375.03  E(vib)   ...       0.21
freq.     389.53  E(vib)   ...       0.20
freq.     439.48  E(vib)   ...       0.17
freq.     470.41  E(vib)   ...       0.15
freq.     499.06  E(vib)   ...       0.14
freq.     505.36  E(vib)   ...       0.14
freq.     524.72  E(vib)   ...       0.13
freq.     542.48  E(vib)   ...       0.12
freq.     564.09  E(vib)   ...       0.11
freq.     582.35  E(vib)   ...       0.11
freq.     589.78  E(vib)   ...       0.10
freq.     597.62  E(vib)   ...       0.10
freq.     628.77  E(vib)   ...       0.09
freq.     643.99  E(vib)   ...       0.09
freq.     666.93  E(vib)   ...       0.08
freq.     699.48  E(vib)   ...       0.07
freq.     711.61  E(vib)   ...       0.07
freq.     753.78  E(vib)   ...       0.06
freq.     777.00  E(vib)   ...       0.05
freq.     871.99  E(vib)   ...       0.04
freq.     990.40  E(vib)   ...       0.02
freq.    1041.14  E(vib)   ...       0.02
freq.    1097.02  E(vib)   ...       0.02
freq.    1103.28  E(vib)   ...       0.02
freq.    1118.88  E(vib)   ...       0.01
freq.    1133.41  E(vib)   ...       0.01
freq.    1138.47  E(vib)   ...       0.01
freq.    1141.53  E(vib)   ...       0.01
freq.    1151.58  E(vib)   ...       0.01
freq.    1158.91  E(vib)   ...       0.01
freq.    1169.57  E(vib)   ...       0.01
freq.    1174.15  E(vib)   ...       0.01
freq.    1176.65  E(vib)   ...       0.01
freq.    1197.77  E(vib)   ...       0.01
freq.    1247.81  E(vib)   ...       0.01
freq.    1267.96  E(vib)   ...       0.01
freq.    1279.63  E(vib)   ...       0.01
freq.    1350.98  E(vib)   ...       0.01
freq.    1392.20  E(vib)   ...       0.00
freq.    1405.03  E(vib)   ...       0.00
freq.    1822.05  E(vib)   ...       0.00
freq.    3608.95  E(vib)   ...       0.00

------------
INNER ENERGY
------------

The inner energy is: U= E(el) + E(ZPE) + E(vib) + E(rot) + E(trans)
    E(el)   - is the total energy from the electronic structure calculation
              = E(kin-el) + E(nuc-el) + E(el-el) + E(nuc-nuc)
    E(ZPE)  - the the zero temperature vibrational energy from the frequency calculation
    E(vib)  - the the finite temperature correction to E(ZPE) due to population
              of excited vibrational states
    E(rot)  - is the rotational thermal energy
    E(trans)- is the translational thermal energy

Summary of contributions to the inner energy U:
Electronic energy                ...  -1853.73672787 Eh
Zero point energy                ...      0.10503618 Eh      65.91 kcal/mol
Thermal vibrational correction   ...      0.02016556 Eh      12.65 kcal/mol
Thermal rotational correction    ...      0.00141627 Eh       0.89 kcal/mol
Thermal translational correction ...      0.00141627 Eh       0.89 kcal/mol
-----------------------------------------------------------------------
Total thermal energy                  -1853.60869359 Eh

Summary of corrections to the electronic energy:
(perhaps to be used in another calculation)
Total thermal correction                  0.02299810 Eh      14.43 kcal/mol
Non-thermal (ZPE) correction              0.10503618 Eh      65.91 kcal/mol
-----------------------------------------------------------------------
Total correction                          0.12803428 Eh      80.34 kcal/mol

--------
ENTHALPY
--------

The enthalpy is H = U + kB*T
                kB is Boltzmann's constant
Total thermal energy              ...  -1853.60869359 Eh
Thermal Enthalpy correction       ...      0.00094421 Eh       0.59 kcal/mol
-----------------------------------------------------------------------
Total Enthalpy                    ...  -1853.60774938 Eh

Note: Only C1 symmetry has been detected, increase convergence thresholds
      if your molecule has a higher symmetry. Symmetry factor of 1.0 is
      used for the rotational entropy correction.

Note: Rotational entropy computed according to Herzberg
Infrared and Raman Spectra, Chapter V,1, Van Nostrand Reinhold, 1945
Point Group:  C1, Symmetry Number:   1
Rotational constants in cm-1:     0.020089     0.004066     0.004020

Vibrational entropy computed according to the QRRHO of S. Grimme
Chem.Eur.J. 2012 18 9955 using a reference frequency of 100.0 cm-1

-------
ENTROPY
-------

The entropy contributions are T*S = T*(S(el)+S(vib)+S(rot)+S(trans))
     S(el)   - electronic entropy
     S(vib)  - vibrational entropy
     S(rot)  - rotational entropy
     S(trans)- translational entropy
The entropies will be listed as multiplied by the temperature to get
units of energy

Electronic entropy                ...      0.00065446 Eh      0.41 kcal/mol
Vibrational entropy               ...      0.03665998 Eh     23.00 kcal/mol

                             ****ORCA TERMINATED NORMALLY****
TOTAL RUN TIME: 0 days 0 hours 19 minutes 37 seconds 281 msec
