                         Program Version 5.0.3 -  RELEASE  -
|  1> !B3LYP def2-TZVP opt d3 TightSCF SlowConv defgrid2
|  2>
|  3> %pal
|  4> nprocs 20
|  5> end
|  6>
|  7> %scf
|  8> MaxIter 1500
|  9> end
| 10>
| 11> %maxcore 8000
| 12>
| 13> !CPCM
| 14> %cpcm smd true
| 15> SMDsolvent "ACETONITRILE"
| 16> end
| 17>
| 18> * xyz -1 1
| 19> 6        4.790427000     -0.033865800     -0.529943200
| 20> 8        5.449345000     -1.206924000     -0.894594600
| 21> 8        4.978223000      1.323071000     -0.737377200
| 22> 6        3.506687600     -0.338741600      0.376153800
| 23> 6        2.222300000      0.400524800     -0.110681600
| 24> 6        0.900506800     -0.386389800      0.175703000
| 25> 6       -0.395261200      0.487294000      0.065549000
| 26> 6       -1.705693600     -0.364773800     -0.068373600
| 27> 6       -3.005136200      0.445344800      0.258164000
| 28> 6       -4.319880200     -0.214526000     -0.270540800
| 29> 9        3.211587400     -1.692050400      0.412735200
| 30> 9        3.741061800      0.055285800      1.689948800
| 31> 9        2.125696800      1.616867800      0.483236600
| 32> 9        2.314152400      0.589704000     -1.455769200
| 33> 9        0.794028800     -1.413561400     -0.700839000
| 34> 9        0.958350600     -0.884509000      1.435093400
| 35> 9       -0.498373400      1.260265600      1.173340200
| 36> 9       -0.299075000      1.289512600     -1.020910800
| 37> 9       -1.641790400     -1.418189000      0.779523800
| 38> 9       -1.792381400     -0.831391600     -1.336863600
| 39> 9       -2.918792200      1.679227200     -0.295171200
| 40> 9       -3.119771000      0.573779800      1.598579800
| 41> 9       -4.383115600     -1.504377600      0.089127600
| 42> 9       -5.365669800      0.430528600      0.260394200
| 43> 9       -4.396020400     -0.128550600     -1.602941800
| 44> *
| 45>
| 46>                          ****END OF INPUT****
 Total Charge           Charge          ....   -1
 Multiplicity           Mult            ....    1
 Number of Electrons    NEL             ....  200
Dispersion correction           -0.043956915
FINAL SINGLE POINT ENERGY     -1953.141948502067
Dispersion correction            ... done
Dispersion correction           -0.044152903
FINAL SINGLE POINT ENERGY     -1953.186061182109
Dispersion correction            ... done
Dispersion correction           -0.044202173
FINAL SINGLE POINT ENERGY     -1953.190060329231
Dispersion correction            ... done
FINAL SINGLE POINT ENERGY     -1953.193055207648
FINAL SINGLE POINT ENERGY     -1953.192690650704
FINAL SINGLE POINT ENERGY     -1953.193273873392
FINAL SINGLE POINT ENERGY     -1953.193508306979
FINAL SINGLE POINT ENERGY     -1953.193543180398
FINAL SINGLE POINT ENERGY     -1953.193549711614
Dispersion correction            ... done
Dispersion correction           -0.044208274
FINAL SINGLE POINT ENERGY     -1953.193554388225
Dispersion correction            ... done
Dispersion correction           -0.044207386
FINAL SINGLE POINT ENERGY     -1953.193558005099
Dispersion correction            ... done
                    ***********************HURRAY********************

CARTESIAN COORDINATES (ANGSTROEM)
---------------------------------
  C      4.820807    0.136137   -0.399891
  O      5.413770   -0.713769   -1.075975
  O      5.054547    1.336432   -0.186559
  C      3.518249   -0.378268    0.340528
  C      2.221745    0.290870   -0.196864
  C      0.891585   -0.452930    0.168828
  C     -0.389352    0.442213    0.018234
  C     -1.722900   -0.380570   -0.043334
  C     -2.996695    0.481932    0.261195
  C     -4.332505   -0.159238   -0.237375
  F      3.356501   -1.728856    0.220323
  F      3.601948   -0.116948    1.681325
  F      2.134319    1.555026    0.274372
  F      2.299128    0.345112   -1.550235
  F      0.757088   -1.533614   -0.629259
  F      0.955363   -0.870557    1.450098
  F     -0.452914    1.281103    1.072409
  F     -0.296181    1.170856   -1.111986
  F     -1.671584   -1.379818    0.859670
  F     -1.842502   -0.916923   -1.274097
  F     -2.883918    1.689106   -0.327697
  F     -3.092747    0.655070    1.591839
  F     -4.423530   -1.429355    0.163646
  F     -5.358445    0.525926    0.271350
  F     -4.410372   -0.115379   -1.567001

 Multiplicity           Mult            ....    1
 Number of Electrons    NEL             ....  200
 Basis Dimension        Dim             ....  775

ORBITAL ENERGIES
----------------

  NO   OCC          E(Eh)            E(eV)
   0   2.0000     -24.745102      -673.3485
   1   2.0000     -24.743805      -673.3132
   2   2.0000     -24.743644      -673.3088
   3   2.0000     -24.743402      -673.3022
   4   2.0000     -24.743191      -673.2965
   5   2.0000     -24.743126      -673.2947
   6   2.0000     -24.742366      -673.2740
   7   2.0000     -24.740394      -673.2204
   8   2.0000     -24.740287      -673.2174
   9   2.0000     -24.734955      -673.0723
  10   2.0000     -24.734111      -673.0494
  11   2.0000     -24.723212      -672.7528
  12   2.0000     -24.723196      -672.7524
  13   2.0000     -24.698187      -672.0718
  14   2.0000     -24.698180      -672.0717
  15   2.0000     -19.061438      -518.6881
  16   2.0000     -19.059549      -518.6367
  17   2.0000     -10.461216      -284.6642
  18   2.0000     -10.408046      -283.2173
  19   2.0000     -10.407235      -283.1953
  20   2.0000     -10.404630      -283.1244
  21   2.0000     -10.397433      -282.9285
  22   2.0000     -10.381622      -282.4983
  23   2.0000     -10.343315      -281.4559
  24   2.0000     -10.254261      -279.0326
  25   2.0000      -1.353854       -36.8402
  26   2.0000      -1.330285       -36.1989
  27   2.0000      -1.315182       -35.7879
  28   2.0000      -1.307520       -35.5794
  29   2.0000      -1.303354       -35.4661
  30   2.0000      -1.291398       -35.1407
  31   2.0000      -1.267130       -34.4804
  32   2.0000      -1.262706       -34.3600
  33   2.0000      -1.260901       -34.3109
  34   2.0000      -1.260059       -34.2879
  35   2.0000      -1.253376       -34.1061
  36   2.0000      -1.249944       -34.0127
  37   2.0000      -1.245619       -33.8950
  38   2.0000      -1.233764       -33.5724
  39   2.0000      -1.204925       -32.7877
  40   2.0000      -1.024578       -27.8802
  41   2.0000      -0.942127       -25.6366
  42   2.0000      -0.846706       -23.0400
  43   2.0000      -0.824860       -22.4456
  44   2.0000      -0.795660       -21.6510
  45   2.0000      -0.758107       -20.6291
  46   2.0000      -0.716761       -19.5041
  47   2.0000      -0.689236       -18.7551
  48   2.0000      -0.670602       -18.2480
  49   2.0000      -0.651020       -17.7151
  50   2.0000      -0.646144       -17.5825
  51   2.0000      -0.638333       -17.3699
  52   2.0000      -0.629644       -17.1335
  53   2.0000      -0.625844       -17.0301
  54   2.0000      -0.623542       -16.9674
  55   2.0000      -0.610960       -16.6251
  56   2.0000      -0.607871       -16.5410
  57   2.0000      -0.603409       -16.4196
  58   2.0000      -0.596389       -16.2286
  59   2.0000      -0.584957       -15.9175
  60   2.0000      -0.581940       -15.8354
  61   2.0000      -0.575988       -15.6734
  62   2.0000      -0.564574       -15.3628
  63   2.0000      -0.550276       -14.9738
  64   2.0000      -0.517430       -14.0800
  65   2.0000      -0.513913       -13.9843
  66   2.0000      -0.508253       -13.8303
  67   2.0000      -0.504320       -13.7232
  68   2.0000      -0.500487       -13.6189
  69   2.0000      -0.496708       -13.5161
  70   2.0000      -0.492478       -13.4010
  71   2.0000      -0.487063       -13.2536
  72   2.0000      -0.483080       -13.1453
  73   2.0000      -0.480606       -13.0780
  74   2.0000      -0.477467       -12.9925
  75   2.0000      -0.470938       -12.8149
  76   2.0000      -0.468601       -12.7513
  77   2.0000      -0.463904       -12.6235
  78   2.0000      -0.460011       -12.5175
  79   2.0000      -0.456147       -12.4124
  80   2.0000      -0.453393       -12.3374
  81   2.0000      -0.452144       -12.3035
  82   2.0000      -0.448973       -12.2172
  83   2.0000      -0.444628       -12.0989
  84   2.0000      -0.443775       -12.0757
  85   2.0000      -0.441291       -12.0082
  86   2.0000      -0.437550       -11.9063
  87   2.0000      -0.434350       -11.8193
  88   2.0000      -0.432569       -11.7708
  89   2.0000      -0.425345       -11.5742
  90   2.0000      -0.415567       -11.3082
  91   2.0000      -0.412156       -11.2153
  92   2.0000      -0.401289       -10.9196
  93   2.0000      -0.399322       -10.8661
  94   2.0000      -0.384920       -10.4742
  95   2.0000      -0.373192       -10.1551
  96   2.0000      -0.342410        -9.3175
  97   2.0000      -0.250459        -6.8153
  98   2.0000      -0.238738        -6.4964
  99   2.0000      -0.236831        -6.4445
 100   0.0000      -0.008077        -0.2198
 101   0.0000       0.005746         0.1564
 102   0.0000       0.026850         0.7306
 103   0.0000       0.053811         1.4643
 104   0.0000       0.057093         1.5536

MULLIKEN ATOMIC CHARGES
-----------------------
   0 C :    0.144058
   1 O :   -0.472151
   2 O :   -0.486467
   3 C :    0.342720
   4 C :    0.316381
   5 C :    0.333584
   6 C :    0.331716
   7 C :    0.312060
   8 C :    0.320635
   9 C :    0.476581
  10 F :   -0.211706
  11 F :   -0.218016
  12 F :   -0.183337
  13 F :   -0.191374
  14 F :   -0.175993
  15 F :   -0.174378
  16 F :   -0.170460
  17 F :   -0.170050
  18 F :   -0.168198
  19 F :   -0.167868
  20 F :   -0.165312
  21 F :   -0.162438
  22 F :   -0.155063
  23 F :   -0.152373
  24 F :   -0.152550
Sum of atomic charges:   -1.0000000

LOEWDIN ATOMIC CHARGES
----------------------
   0 C :   -0.693013
   1 O :   -0.049934
   2 O :   -0.056630
   3 C :   -0.436626
   4 C :   -0.453506
   5 C :   -0.454503
   6 C :   -0.455493
   7 C :   -0.457069
   8 C :   -0.463520
   9 C :   -0.664431
  10 F :    0.164134
  11 F :    0.155340
  12 F :    0.209437
  13 F :    0.202478
  14 F :    0.215860
  15 F :    0.217740
  16 F :    0.221925
  17 F :    0.223062
  18 F :    0.224734
  19 F :    0.224088
  20 F :    0.223522
  21 F :    0.224655
  22 F :    0.225205
  23 F :    0.225774
  24 F :    0.226770

  Mayer bond orders larger than 0.100000
B(  0-C ,  1-O ) :   1.8975 B(  0-C ,  2-O ) :   1.8723 B(  0-C ,  3-C ) :   0.8464
B(  3-C ,  4-C ) :   0.9232 B(  3-C , 10-F ) :   1.0432 B(  3-C , 11-F ) :   1.0295
B(  4-C ,  5-C ) :   0.9280 B(  4-C , 12-F ) :   1.0658 B(  4-C , 13-F ) :   1.0557
B(  5-C ,  6-C ) :   0.9385 B(  5-C , 14-F ) :   1.0713 B(  5-C , 15-F ) :   1.0792
B(  6-C ,  7-C ) :   0.9332 B(  6-C , 16-F ) :   1.0757 B(  6-C , 17-F ) :   1.0790
B(  7-C ,  8-C ) :   0.9277 B(  7-C , 18-F ) :   1.0832 B(  7-C , 19-F ) :   1.0869
B(  8-C ,  9-C ) :   0.9699 B(  8-C , 20-F ) :   1.0877 B(  8-C , 21-F ) :   1.0997
B(  9-C , 22-F ) :   1.1430 B(  9-C , 23-F ) :   1.1490 B(  9-C , 24-F ) :   1.1546

Dispersion correction           -0.044207893
FINAL SINGLE POINT ENERGY     -1953.193560142062

DIPOLE MOMENT
-------------
                                X             Y             Z
Electronic contribution:    -18.82315      -0.99541       1.84732
Nuclear contribution   :      9.85907       0.58661      -1.05731
                        -----------------------------------------
Total Dipole Moment    :     -8.96409      -0.40880       0.79000
                        -----------------------------------------
Magnitude (a.u.)       :      9.00811
Magnitude (Debye)      :     22.89680

Rotational constants in cm-1:     0.021283     0.003719     0.003666
Rotational constants in MHz :   638.035652   111.505432   109.896440

                             ****ORCA TERMINATED NORMALLY****
TOTAL RUN TIME: 0 days 0 hours 20 minutes 32 seconds 328 msec
