                         Program Version 5.0.3 -  RELEASE  -
|  1> !B3LYP def2-TZVP opt d3 TightSCF SlowConv defgrid2
|  2>
|  3> %pal
|  4> nprocs 20
|  5> end
|  6>
|  7> %scf
|  8> MaxIter 1500
|  9> end
| 10>
| 11> %maxcore 8000
| 12>
| 13> !CPCM
| 14> %cpcm smd true
| 15> SMDsolvent "ACETONITRILE"
| 16> end
| 17>
| 18> * xyz -1 2
| 19> 6        4.790427000     -0.033865800     -0.529943200
| 20> 8        5.449345000     -1.206924000     -0.894594600
| 21> 8        4.978223000      1.323071000     -0.737377200
| 22> 6        3.506687600     -0.338741600      0.376153800
| 23> 6        2.222300000      0.400524800     -0.110681600
| 24> 6        0.900506800     -0.386389800      0.175703000
| 25> 6       -0.395261200      0.487294000      0.065549000
| 26> 6       -1.705693600     -0.364773800     -0.068373600
| 27> 6       -3.005136200      0.445344800      0.258164000
| 28> 6       -4.319880200     -0.214526000     -0.270540800
| 29> 9        3.211587400     -1.692050400      0.412735200
| 30> 9        3.741061800      0.055285800      1.689948800
| 31> 9        2.125696800      1.616867800      0.483236600
| 32> 9        2.314152400      0.589704000     -1.455769200
| 33> 9        0.794028800     -1.413561400     -0.700839000
| 34> 9        0.958350600     -0.884509000      1.435093400
| 35> 9       -0.498373400      1.260265600      1.173340200
| 36> 9       -1.641790400     -1.418189000      0.779523800
| 37> 9       -1.792381400     -0.831391600     -1.336863600
| 38> 9       -2.918792200      1.679227200     -0.295171200
| 39> 9       -3.119771000      0.573779800      1.598579800
| 40> 9       -4.383115600     -1.504377600      0.089127600
| 41> 9       -5.365669800      0.430528600      0.260394200
| 42> 9       -4.396020400     -0.128550600     -1.602941800
| 43> *
| 44>
| 45>                          ****END OF INPUT****
 Total Charge           Charge          ....   -1
 Multiplicity           Mult            ....    2
 Number of Electrons    NEL             ....  191
Dispersion correction           -0.041502289
FINAL SINGLE POINT ENERGY     -1853.220091084763
Dispersion correction            ... done
Dispersion correction           -0.041691131
FINAL SINGLE POINT ENERGY     -1853.265539039844
Dispersion correction            ... done
Dispersion correction           -0.041797673
FINAL SINGLE POINT ENERGY     -1853.274522830580
Dispersion correction            ... done
FINAL SINGLE POINT ENERGY     -1853.279465806434
FINAL SINGLE POINT ENERGY     -1853.280971462718
FINAL SINGLE POINT ENERGY     -1853.282097770006
FINAL SINGLE POINT ENERGY     -1853.283152998246
FINAL SINGLE POINT ENERGY     -1853.283822604776
FINAL SINGLE POINT ENERGY     -1853.284284028037
FINAL SINGLE POINT ENERGY     -1853.284630184625
FINAL SINGLE POINT ENERGY     -1853.284708260132
Dispersion correction            ... done
Dispersion correction           -0.041945915
FINAL SINGLE POINT ENERGY     -1853.284742770521
Dispersion correction            ... done
Dispersion correction           -0.041937153
FINAL SINGLE POINT ENERGY     -1853.284747719380
Dispersion correction            ... done
                    ***********************HURRAY********************

CARTESIAN COORDINATES (ANGSTROEM)
---------------------------------
  C      4.357790    0.290678   -1.028845
  O      4.848566   -0.579775   -1.758980
  O      4.432193    1.529860   -1.051406
  C      3.463152   -0.251705    0.159134
  C      1.971750    0.159984    0.021447
  C      0.941689   -0.670247    0.858566
  C     -0.422021   -0.042202    0.923874
  C     -1.632174   -0.548814    0.206970
  C     -2.820003    0.464436    0.211023
  C     -4.017118    0.093002   -0.723152
  F      3.505790   -1.613190    0.253548
  F      3.923808    0.230058    1.355722
  F      1.819268    1.455975    0.384273
  F      1.607988    0.043681   -1.282014
  F      0.824641   -1.907739    0.319228
  F      1.428394   -0.792993    2.123743
  F     -0.589609    0.895881    1.838931
  F     -2.081696   -1.714490    0.764221
  F     -1.307738   -0.832018   -1.080941
  F     -2.365226    1.671230   -0.186063
  F     -3.301647    0.567845    1.465980
  F     -4.471464   -1.133693   -0.463309
  F     -5.006020    0.966673   -0.512011
  F     -3.659833    0.161605   -2.005487

 Multiplicity           Mult            ....    2
 Number of Electrons    NEL             ....  191
 Basis Dimension        Dim             ....  744

ORBITAL ENERGIES
----------------
                 SPIN UP ORBITALS
  NO   OCC          E(Eh)            E(eV)
   0   1.0000     -24.754074      -673.5926
   1   1.0000     -24.743440      -673.3032
   2   1.0000     -24.742614      -673.2808
   3   1.0000     -24.741703      -673.2560
   4   1.0000     -24.741267      -673.2441
   5   1.0000     -24.740734      -673.2296
   6   1.0000     -24.734708      -673.0656
   7   1.0000     -24.729211      -672.9160
   8   1.0000     -24.728863      -672.9066
   9   1.0000     -24.726431      -672.8404
  10   1.0000     -24.721679      -672.7111
  11   1.0000     -24.720853      -672.6886
  12   1.0000     -24.696959      -672.0384
  13   1.0000     -24.696624      -672.0293
  14   1.0000     -19.061345      -518.6856
  15   1.0000     -19.059316      -518.6304
  16   1.0000     -10.459900      -284.6283
  17   1.0000     -10.404021      -283.1078
  18   1.0000     -10.402892      -283.0771
  19   1.0000     -10.393267      -282.8152
  20   1.0000     -10.376701      -282.3644
  21   1.0000     -10.342024      -281.4208
  22   1.0000     -10.322906      -280.9005
  23   1.0000     -10.253744      -279.0186
  24   1.0000      -1.352012       -36.7901
  25   1.0000      -1.316498       -35.8237
  26   1.0000      -1.306990       -35.5650
  27   1.0000      -1.298054       -35.3219
  28   1.0000      -1.292243       -35.1637
  29   1.0000      -1.285413       -34.9779
  30   1.0000      -1.263944       -34.3937
  31   1.0000      -1.260970       -34.3127
  32   1.0000      -1.258572       -34.2475
  33   1.0000      -1.251895       -34.0658
  34   1.0000      -1.241466       -33.7820
  35   1.0000      -1.239640       -33.7323
  36   1.0000      -1.229968       -33.4691
  37   1.0000      -1.203300       -32.7435
  38   1.0000      -1.024267       -27.8717
  39   1.0000      -0.941824       -25.6283
  40   1.0000      -0.854442       -23.2505
  41   1.0000      -0.823656       -22.4128
  42   1.0000      -0.793534       -21.5932
  43   1.0000      -0.756187       -20.5769
  44   1.0000      -0.711111       -19.3503
  45   1.0000      -0.685340       -18.6490
  46   1.0000      -0.662224       -18.0200
  47   1.0000      -0.646084       -17.5808
  48   1.0000      -0.639312       -17.3966
  49   1.0000      -0.635334       -17.2883
  50   1.0000      -0.619226       -16.8500
  51   1.0000      -0.614998       -16.7349
  52   1.0000      -0.612746       -16.6737
  53   1.0000      -0.607323       -16.5261
  54   1.0000      -0.603787       -16.4299
  55   1.0000      -0.592957       -16.1352
  56   1.0000      -0.584089       -15.8939
  57   1.0000      -0.576090       -15.6762
  58   1.0000      -0.572476       -15.5779
  59   1.0000      -0.565067       -15.3763
  60   1.0000      -0.548392       -14.9225
  61   1.0000      -0.532104       -14.4793
  62   1.0000      -0.514326       -13.9955
  63   1.0000      -0.505869       -13.7654
  64   1.0000      -0.502193       -13.6654
  65   1.0000      -0.495814       -13.4918
  66   1.0000      -0.487320       -13.2607
  67   1.0000      -0.486549       -13.2397
  68   1.0000      -0.482902       -13.1404
  69   1.0000      -0.476459       -12.9651
  70   1.0000      -0.475980       -12.9521
  71   1.0000      -0.472307       -12.8521
  72   1.0000      -0.465015       -12.6537
  73   1.0000      -0.462350       -12.5812
  74   1.0000      -0.460557       -12.5324
  75   1.0000      -0.456424       -12.4199
  76   1.0000      -0.454864       -12.3775
  77   1.0000      -0.449946       -12.2437
  78   1.0000      -0.446086       -12.1386
  79   1.0000      -0.442549       -12.0424
  80   1.0000      -0.441039       -12.0013
  81   1.0000      -0.438966       -11.9449
  82   1.0000      -0.433767       -11.8034
  83   1.0000      -0.430880       -11.7248
  84   1.0000      -0.426864       -11.6156
  85   1.0000      -0.417040       -11.3482
  86   1.0000      -0.410745       -11.1770
  87   1.0000      -0.401670       -10.9300
  88   1.0000      -0.398815       -10.8523
  89   1.0000      -0.384522       -10.4634
  90   1.0000      -0.373412       -10.1610
  91   1.0000      -0.351226        -9.5573
  92   1.0000      -0.270921        -7.3721
  93   1.0000      -0.250297        -6.8109
  94   1.0000      -0.237776        -6.4702
  95   1.0000      -0.236413        -6.4331
  96   0.0000      -0.001957        -0.0533
  97   0.0000       0.022912         0.6235
  98   0.0000       0.035805         0.9743
  99   0.0000       0.054362         1.4793
 100   0.0000       0.066468         1.8087

                 SPIN DOWN ORBITALS
  NO   OCC          E(Eh)            E(eV)
   0   1.0000     -24.749549      -673.4695
   1   1.0000     -24.743437      -673.3032
   2   1.0000     -24.742614      -673.2808
   3   1.0000     -24.741702      -673.2559
   4   1.0000     -24.741198      -673.2422
   5   1.0000     -24.740674      -673.2280
   6   1.0000     -24.734007      -673.0466
   7   1.0000     -24.728555      -672.8982
   8   1.0000     -24.727533      -672.8704
   9   1.0000     -24.725666      -672.8196
  10   1.0000     -24.721652      -672.7104
  11   1.0000     -24.720813      -672.6875
  12   1.0000     -24.696944      -672.0380
  13   1.0000     -24.696626      -672.0294
  14   1.0000     -19.061246      -518.6829
  15   1.0000     -19.059295      -518.6298
  16   1.0000     -10.459908      -284.6286
  17   1.0000     -10.403982      -283.1067
  18   1.0000     -10.403548      -283.0949
  19   1.0000     -10.394093      -282.8376
  20   1.0000     -10.376127      -282.3488
  21   1.0000     -10.341916      -281.4179
  22   1.0000     -10.308411      -280.5061
  23   1.0000     -10.253718      -279.0178
  24   1.0000      -1.351975       -36.7891
  25   1.0000      -1.315072       -35.7849
  26   1.0000      -1.305404       -35.5218
  27   1.0000      -1.296425       -35.2775
  28   1.0000      -1.286771       -35.0148
  29   1.0000      -1.281905       -34.8824
  30   1.0000      -1.263829       -34.3905
  31   1.0000      -1.260919       -34.3113
  32   1.0000      -1.258556       -34.2470
  33   1.0000      -1.251636       -34.0587
  34   1.0000      -1.240315       -33.7507
  35   1.0000      -1.237006       -33.6607
  36   1.0000      -1.229575       -33.4584
  37   1.0000      -1.203280       -32.7429
  38   1.0000      -1.024145       -27.8684
  39   1.0000      -0.941684       -25.6245
  40   1.0000      -0.842727       -22.9318
  41   1.0000      -0.820029       -22.3141
  42   1.0000      -0.787968       -21.4417
  43   1.0000      -0.754185       -20.5224
  44   1.0000      -0.707768       -19.2593
  45   1.0000      -0.682326       -18.5670
  46   1.0000      -0.658891       -17.9293
  47   1.0000      -0.645491       -17.5647
  48   1.0000      -0.637681       -17.3522
  49   1.0000      -0.635021       -17.2798
  50   1.0000      -0.617480       -16.8025
  51   1.0000      -0.611666       -16.6443
  52   1.0000      -0.609398       -16.5826
  53   1.0000      -0.606002       -16.4902
  54   1.0000      -0.602731       -16.4011
  55   1.0000      -0.591310       -16.0904
  56   1.0000      -0.580757       -15.8032
  57   1.0000      -0.574015       -15.6197
  58   1.0000      -0.570966       -15.5368
  59   1.0000      -0.563837       -15.3428
  60   1.0000      -0.548262       -14.9190
  61   1.0000      -0.514061       -13.9883
  62   1.0000      -0.505449       -13.7540
  63   1.0000      -0.504154       -13.7187
  64   1.0000      -0.501615       -13.6496
  65   1.0000      -0.494837       -13.4652
  66   1.0000      -0.486079       -13.2269
  67   1.0000      -0.484879       -13.1942
  68   1.0000      -0.481945       -13.1144
  69   1.0000      -0.475013       -12.9258
  70   1.0000      -0.473676       -12.8894
  71   1.0000      -0.471091       -12.8190
  72   1.0000      -0.463273       -12.6063
  73   1.0000      -0.462043       -12.5728
  74   1.0000      -0.459252       -12.4969
  75   1.0000      -0.454145       -12.3579
  76   1.0000      -0.452752       -12.3200
  77   1.0000      -0.449550       -12.2329
  78   1.0000      -0.445185       -12.1141
  79   1.0000      -0.441465       -12.0129
  80   1.0000      -0.439433       -11.9576
  81   1.0000      -0.438013       -11.9189
  82   1.0000      -0.433297       -11.7906
  83   1.0000      -0.430484       -11.7141
  84   1.0000      -0.425477       -11.5778
  85   1.0000      -0.416004       -11.3200
  86   1.0000      -0.410652       -11.1744
  87   1.0000      -0.400512       -10.8985
  88   1.0000      -0.398432       -10.8419
  89   1.0000      -0.384396       -10.4599
  90   1.0000      -0.371609       -10.1120
  91   1.0000      -0.348786        -9.4909
  92   1.0000      -0.250221        -6.8089
  93   1.0000      -0.238296        -6.4844
  94   1.0000      -0.236523        -6.4361
  95   0.0000      -0.124300        -3.3824
  96   0.0000       0.000890         0.0242
  97   0.0000       0.024808         0.6751
  98   0.0000       0.039915         1.0861
  99   0.0000       0.055748         1.5170

MULLIKEN ATOMIC CHARGES AND SPIN POPULATIONS
--------------------------------------------
   0 C :    0.146651    0.001296
   1 O :   -0.472700    0.003495
   2 O :   -0.487590    0.000820
   3 C :    0.335772    0.003750
   4 C :    0.312023    0.024204
   5 C :    0.375623   -0.020231
   6 C :    0.136598    0.830600
   7 C :    0.334396    0.008331
   8 C :    0.332564   -0.005466
   9 C :    0.475180    0.000035
  10 F :   -0.212210   -0.000031
  11 F :   -0.219860    0.000366
  12 F :   -0.189896    0.000716
  13 F :   -0.197192    0.000619
  14 F :   -0.180044    0.005635
  15 F :   -0.182654    0.014389
  16 F :   -0.145464    0.086723
  17 F :   -0.183519    0.030591
  18 F :   -0.178173    0.011964
  19 F :   -0.168845    0.000994
  20 F :   -0.167642    0.001147
  21 F :   -0.154736    0.000040
  22 F :   -0.154660   -0.000000
  23 F :   -0.153621    0.000012
Sum of atomic charges         :   -1.0000000

LOEWDIN ATOMIC CHARGES AND SPIN POPULATIONS
-------------------------------------------
   0 C :   -0.692877    0.001502
   1 O :   -0.050186    0.003130
   2 O :   -0.057646    0.000745
   3 C :   -0.436356    0.004942
   4 C :   -0.447375    0.019971
   5 C :   -0.471217    0.057233
   6 C :   -0.162730    0.657245
   7 C :   -0.468564    0.063923
   8 C :   -0.455285    0.001263
   9 C :   -0.663020   -0.000088
  10 F :    0.163268   -0.000047
  11 F :    0.152816    0.000400
  12 F :    0.205199    0.001206
  13 F :    0.200173    0.000866
  14 F :    0.208870    0.006174
  15 F :    0.199253    0.015355
  16 F :    0.262630    0.112187
  17 F :    0.188744    0.035416
  18 F :    0.208550    0.015483
  19 F :    0.221743    0.001505
  20 F :    0.220698    0.001462
  21 F :    0.225709    0.000086
  22 F :    0.221910    0.000023
  23 F :    0.225693    0.000019

  Mayer bond orders larger than 0.100000
B(  0-C ,  1-O ) :   1.8948 B(  0-C ,  2-O ) :   1.8720 B(  0-C ,  3-C ) :   0.8495
B(  3-C ,  4-C ) :   0.9172 B(  3-C , 10-F ) :   1.0441 B(  3-C , 11-F ) :   1.0301
B(  4-C ,  5-C ) :   0.9171 B(  4-C , 12-F ) :   1.0599 B(  4-C , 13-F ) :   1.0546
B(  5-C ,  6-C ) :   1.0302 B(  5-C , 14-F ) :   1.0782 B(  5-C , 15-F ) :   1.0709
B(  6-C ,  7-C ) :   1.0257 B(  6-C , 16-F ) :   1.1147 B(  7-C ,  8-C ) :   0.9200
B(  7-C , 17-F ) :   1.0599 B(  7-C , 18-F ) :   1.0680 B(  8-C ,  9-C ) :   0.9681
B(  8-C , 19-F ) :   1.0870 B(  8-C , 20-F ) :   1.0833 B(  9-C , 21-F ) :   1.1513
B(  9-C , 22-F ) :   1.1451 B(  9-C , 23-F ) :   1.1564

Dispersion correction           -0.041936634
FINAL SINGLE POINT ENERGY     -1853.284740935314

DIPOLE MOMENT
-------------
                                X             Y             Z
Electronic contribution:    -16.68190      -1.50792       4.32753
Nuclear contribution   :      8.66791       0.91965      -2.17060
                        -----------------------------------------
Total Dipole Moment    :     -8.01399      -0.58827       2.15693
                        -----------------------------------------
Magnitude (a.u.)       :      8.32000
Magnitude (Debye)      :     21.14776

Rotational constants in cm-1:     0.018771     0.004130     0.004036
Rotational constants in MHz :   562.748645   123.801335   121.010799

                             ****ORCA TERMINATED NORMALLY****
TOTAL RUN TIME: 0 days 0 hours 32 minutes 31 seconds 437 msec
