                         Program Version 6.0.1  -  RELEASE   -
|  1> !B3LYP def2-TZVP opt d3 TightSCF SlowConv defgrid2
|  2>
|  3> %pal
|  4> nprocs 20
|  5> end
|  6>
|  7> %scf
|  8> MaxIter 1500
|  9> end
| 10>
| 11> %maxcore 8000
| 12>
| 13> !CPCM
| 14> %cpcm smd true
| 15> SMDsolvent "ACETONITRILE"
| 16> end
| 17>
| 18> * xyz -2 2
| 19> 6        7.312757000     27.827789000      2.877596000
| 20> 6        6.822739000     26.370505000      3.068974000
| 21> 6        7.236574000     25.214832000      2.103762000
| 22> 6        6.796224000     23.703591000      2.195781000
| 23> 6        7.201952000     22.526603000      1.241300000
| 24> 6        6.752332000     21.043441000      1.448863000
| 25> 6        7.068050000     19.956746000      0.375378000
| 26> 6        6.728569000     18.498681000      0.832029000
| 27> 9        6.912465000     28.313813000      1.693257000
| 28> 9        8.651090000     27.893709000      2.934884000
| 29> 9        6.834772000     28.671956000      3.831099000
| 30> 9        7.232101000     26.014150000      4.329326000
| 31> 9        5.452852000     26.444719000      3.052118000
| 32> 9        6.820726000     25.636669000      0.848501000
| 33> 9        8.621994000     25.197305000      2.143667000
| 34> 9        7.211985000     23.296141000      3.459821000
| 35> 9        5.409606000     23.741739000      2.160386000
| 36> 9        6.763107000     22.891464000     -0.013023000
| 37> 9        8.580084000     22.508278000      1.236983000
| 38> 9        7.305876000     20.621125000      2.625375000
| 39> 9        5.392395000     21.046986000      1.605577000
| 40> 9        6.371514000     20.276465000     -0.756878000
| 41> 9        8.397324000     20.058276000      0.054923000
| 42> 8        7.648688000     17.880331000      1.402264000
| 43> 8        5.562896000     18.121540000      0.604283000
| 44> 8        3.370030000     19.012701000     -0.812369000
| 45> 1        2.708716000     18.413018000     -0.447158000
| 46> 1        4.201434000     18.777941000     -0.344572000
| 47> 1        9.201207000     18.500788000      1.994430000
| 48> 8       10.056490000     18.802427000      2.375109000
| 49> 1       10.077667000     19.747111000      2.182535000
| 50> *
| 51>
| 52>                          ****END OF INPUT****
 Total Charge           Charge          ....   -2
 Multiplicity           Mult            ....    2
 Number of Electrons    NEL             ....  221
Dispersion correction           -0.049176573
FINAL SINGLE POINT ENERGY     -2106.129156810297
Dispersion correction             ... done (  0.0 sec)
Dispersion correction           -0.049172108
FINAL SINGLE POINT ENERGY     -2106.129158402510
Dispersion correction             ... done (  0.0 sec)
Dispersion correction           -0.049169887
FINAL SINGLE POINT ENERGY     -2106.129159604027
Dispersion correction             ... done (  0.0 sec)
FINAL SINGLE POINT ENERGY     -2106.129160358187
FINAL SINGLE POINT ENERGY     -2106.129161166637
Dispersion correction             ... done (  0.0 sec)
Dispersion correction           -0.049171004
FINAL SINGLE POINT ENERGY     -2106.129161843367
Dispersion correction             ... done (  0.0 sec)
Dispersion correction           -0.049172583
FINAL SINGLE POINT ENERGY     -2106.129162485158
Dispersion correction             ... done (  0.0 sec)
                    ***********************HURRAY********************

CARTESIAN COORDINATES (ANGSTROEM)
---------------------------------
  C      7.304944   27.826916    2.876307
  C      6.821774   26.367216    3.068721
  C      7.234358   25.214473    2.100144
  C      6.798287   23.702254    2.193391
  C      7.200063   22.527268    1.235361
  C      6.756855   21.042093    1.445379
  C      7.072849   19.954956    0.372822
  C      6.728697   18.497338    0.827699
  F      6.897401   28.312422    1.694271
  F      8.643221   27.898409    2.926982
  F      6.827953   28.666891    3.833407
  F      7.239302   26.011347    4.326413
  F      5.451597   26.436624    3.060162
  F      6.811598   25.636736    0.847268
  F      8.619868   25.200659    2.133030
  F      7.222351   23.294790    3.454724
  F      5.411138   23.737410    2.166159
  F      6.750591   22.891641   -0.015160
  F      8.578294   22.512745    1.220156
  F      7.316942   20.622868    2.620126
  F      5.397611   21.040894    1.607127
  F      6.379781   20.276465   -0.761539
  F      8.402936   20.053110    0.055796
  O      7.645908   17.876501    1.399817
  O      5.562850   18.122955    0.595759
  O      3.371463   19.039758   -0.800893
  H      2.715974   18.432956   -0.436916
  H      4.207002   18.802902   -0.341339
  H      9.195022   18.495951    2.002263
  O     10.052275   18.783899    2.389268
  H     10.085310   19.730391    2.207517

 Multiplicity           Mult            ....    2
 Number of Electrons    NEL             ....  221
 Basis Dimension        Dim             ....  861

ORBITAL ENERGIES
----------------
                 SPIN UP ORBITALS
  NO   OCC          E(Eh)            E(eV)
   0   1.0000     -24.722198      -672.7252
   1   1.0000     -24.722104      -672.7227
   2   1.0000     -24.715410      -672.5405
   3   1.0000     -24.704285      -672.2378
   4   1.0000     -24.704187      -672.2351
   5   1.0000     -24.698225      -672.0729
   6   1.0000     -24.696948      -672.0381
   7   1.0000     -24.691734      -671.8962
   8   1.0000     -24.690866      -671.8726
   9   1.0000     -24.689146      -671.8258
  10   1.0000     -24.688606      -671.8111
  11   1.0000     -24.688454      -671.8070
  12   1.0000     -24.688408      -671.8057
  13   1.0000     -24.683821      -671.6809
  14   1.0000     -24.683205      -671.6641
  15   1.0000     -19.083045      -519.2761
  16   1.0000     -19.081539      -519.2351
  17   1.0000     -19.070721      -518.9407
  18   1.0000     -19.070585      -518.9370
  19   1.0000     -10.429904      -283.8121
  20   1.0000     -10.359098      -281.8854
  21   1.0000     -10.350620      -281.6547
  22   1.0000     -10.344186      -281.4796
  23   1.0000     -10.341587      -281.4089
  24   1.0000     -10.335593      -281.2458
  25   1.0000     -10.334691      -281.2212
  26   1.0000     -10.260975      -279.2153
  27   1.0000      -1.323245       -36.0073
  28   1.0000      -1.273751       -34.6605
  29   1.0000      -1.269553       -34.5463
  30   1.0000      -1.254954       -34.1490
  31   1.0000      -1.249487       -34.0003
  32   1.0000      -1.245159       -33.8825
  33   1.0000      -1.238976       -33.7143
  34   1.0000      -1.234161       -33.5832
  35   1.0000      -1.228645       -33.4331
  36   1.0000      -1.214278       -33.0422
  37   1.0000      -1.211777       -32.9741
  38   1.0000      -1.200737       -32.6737
  39   1.0000      -1.195257       -32.5246
  40   1.0000      -1.194310       -32.4988
  41   1.0000      -1.187145       -32.3038
  42   1.0000      -1.033414       -28.1206
  43   1.0000      -0.968560       -26.3558
  44   1.0000      -0.965869       -26.2826
  45   1.0000      -0.946378       -25.7523
  46   1.0000      -0.794496       -21.6193
  47   1.0000      -0.785124       -21.3643
  48   1.0000      -0.758094       -20.6288
  49   1.0000      -0.728267       -19.8171
  50   1.0000      -0.690978       -18.8025
  51   1.0000      -0.660378       -17.9698
  52   1.0000      -0.634566       -17.2674
  53   1.0000      -0.608689       -16.5633
  54   1.0000      -0.607244       -16.5239
  55   1.0000      -0.605466       -16.4756
  56   1.0000      -0.591589       -16.0980
  57   1.0000      -0.584396       -15.9022
  58   1.0000      -0.579730       -15.7753
  59   1.0000      -0.571665       -15.5558
  60   1.0000      -0.569905       -15.5079
  61   1.0000      -0.558062       -15.1856
  62   1.0000      -0.557650       -15.1744
  63   1.0000      -0.553832       -15.0705
  64   1.0000      -0.544237       -14.8094
  65   1.0000      -0.538875       -14.6635
  66   1.0000      -0.534470       -14.5437
  67   1.0000      -0.523895       -14.2559
  68   1.0000      -0.506457       -13.7814
  69   1.0000      -0.491437       -13.3727
  70   1.0000      -0.481191       -13.0939
  71   1.0000      -0.480931       -13.0868
  72   1.0000      -0.475589       -12.9414
  73   1.0000      -0.461218       -12.5504
  74   1.0000      -0.458899       -12.4873
  75   1.0000      -0.456810       -12.4304
  76   1.0000      -0.455319       -12.3899
  77   1.0000      -0.451742       -12.2925
  78   1.0000      -0.449499       -12.2315
  79   1.0000      -0.447317       -12.1721
  80   1.0000      -0.444190       -12.0870
  81   1.0000      -0.443449       -12.0669
  82   1.0000      -0.440499       -11.9866
  83   1.0000      -0.434867       -11.8333
  84   1.0000      -0.432390       -11.7659
  85   1.0000      -0.425047       -11.5661
  86   1.0000      -0.422393       -11.4939
  87   1.0000      -0.421212       -11.4618
  88   1.0000      -0.420366       -11.4387
  89   1.0000      -0.416923       -11.3451
  90   1.0000      -0.410747       -11.1770
  91   1.0000      -0.409965       -11.1557
  92   1.0000      -0.406243       -11.0544
  93   1.0000      -0.403907       -10.9909
  94   1.0000      -0.402127       -10.9424
  95   1.0000      -0.400474       -10.8974
  96   1.0000      -0.397382       -10.8133
  97   1.0000      -0.390763       -10.6332
  98   1.0000      -0.390588       -10.6284
  99   1.0000      -0.381519       -10.3817
 100   1.0000      -0.372692       -10.1415
 101   1.0000      -0.354153        -9.6370
 102   1.0000      -0.351732        -9.5711
 103   1.0000      -0.346861        -9.4386
 104   1.0000      -0.317579        -8.6418
 105   1.0000      -0.281431        -7.6581
 106   1.0000      -0.279095        -7.5946
 107   1.0000      -0.259020        -7.0483
 108   1.0000      -0.250172        -6.8075
 109   1.0000      -0.246401        -6.7049
 110   1.0000      -0.074343        -2.0230
 111   0.0000       0.016616         0.4521
 112   0.0000       0.042665         1.1610
 113   0.0000       0.058191         1.5835
 114   0.0000       0.062734         1.7071
 115   0.0000       0.068996         1.8775

                 SPIN DOWN ORBITALS
  NO   OCC          E(Eh)            E(eV)
   0   1.0000     -24.722149      -672.7239
   1   1.0000     -24.722054      -672.7213
   2   1.0000     -24.714425      -672.5137
   3   1.0000     -24.703910      -672.2276
   4   1.0000     -24.703806      -672.2247
   5   1.0000     -24.698073      -672.0687
   6   1.0000     -24.696743      -672.0325
   7   1.0000     -24.691307      -671.8846
   8   1.0000     -24.690428      -671.8607
   9   1.0000     -24.688503      -671.8083
  10   1.0000     -24.688334      -671.8037
  11   1.0000     -24.688324      -671.8034
  12   1.0000     -24.687935      -671.7929
  13   1.0000     -24.683144      -671.6625
  14   1.0000     -24.682486      -671.6446
  15   1.0000     -19.083046      -519.2761
  16   1.0000     -19.081540      -519.2351
  17   1.0000     -19.070429      -518.9328
  18   1.0000     -19.070293      -518.9291
  19   1.0000     -10.428649      -283.7780
  20   1.0000     -10.357165      -281.8328
  21   1.0000     -10.349316      -281.6192
  22   1.0000     -10.341777      -281.4141
  23   1.0000     -10.338396      -281.3221
  24   1.0000     -10.334088      -281.2048
  25   1.0000     -10.332180      -281.1529
  26   1.0000     -10.260688      -279.2075
  27   1.0000      -1.322345       -35.9828
  28   1.0000      -1.272617       -34.6297
  29   1.0000      -1.268207       -34.5097
  30   1.0000      -1.253517       -34.1099
  31   1.0000      -1.248994       -33.9869
  32   1.0000      -1.243587       -33.8397
  33   1.0000      -1.238798       -33.7094
  34   1.0000      -1.232338       -33.5336
  35   1.0000      -1.226970       -33.3876
  36   1.0000      -1.213363       -33.0173
  37   1.0000      -1.211172       -32.9577
  38   1.0000      -1.199655       -32.6443
  39   1.0000      -1.194259       -32.4974
  40   1.0000      -1.193805       -32.4851
  41   1.0000      -1.185679       -32.2640
  42   1.0000      -1.032814       -28.1043
  43   1.0000      -0.968514       -26.3546
  44   1.0000      -0.965861       -26.2824
  45   1.0000      -0.945837       -25.7375
  46   1.0000      -0.786691       -21.4070
  47   1.0000      -0.779020       -21.1982
  48   1.0000      -0.750157       -20.4128
  49   1.0000      -0.722269       -19.6539
  50   1.0000      -0.687032       -18.6951
  51   1.0000      -0.657880       -17.9018
  52   1.0000      -0.632270       -17.2049
  53   1.0000      -0.608024       -16.5452
  54   1.0000      -0.604861       -16.4591
  55   1.0000      -0.602176       -16.3861
  56   1.0000      -0.589087       -16.0299
  57   1.0000      -0.580524       -15.7969
  58   1.0000      -0.578529       -15.7426
  59   1.0000      -0.570427       -15.5221
  60   1.0000      -0.566096       -15.4042
  61   1.0000      -0.556560       -15.1448
  62   1.0000      -0.553600       -15.0642
  63   1.0000      -0.551611       -15.0101
  64   1.0000      -0.543259       -14.7828
  65   1.0000      -0.534560       -14.5461
  66   1.0000      -0.532412       -14.4877
  67   1.0000      -0.522657       -14.2222
  68   1.0000      -0.506300       -13.7771
  69   1.0000      -0.491413       -13.3720
  70   1.0000      -0.480549       -13.0764
  71   1.0000      -0.479363       -13.0441
  72   1.0000      -0.475035       -12.9264
  73   1.0000      -0.460589       -12.5333
  74   1.0000      -0.458299       -12.4709
  75   1.0000      -0.456425       -12.4200
  76   1.0000      -0.454800       -12.3757
  77   1.0000      -0.450961       -12.2713
  78   1.0000      -0.448887       -12.2148
  79   1.0000      -0.446681       -12.1548
  80   1.0000      -0.443165       -12.0591
  81   1.0000      -0.442427       -12.0390
  82   1.0000      -0.439915       -11.9707
  83   1.0000      -0.433864       -11.8060
  84   1.0000      -0.431356       -11.7378
  85   1.0000      -0.424186       -11.5427
  86   1.0000      -0.421424       -11.4675
  87   1.0000      -0.420543       -11.4435
  88   1.0000      -0.419625       -11.4186
  89   1.0000      -0.416080       -11.3221
  90   1.0000      -0.410301       -11.1648
  91   1.0000      -0.408423       -11.1138
  92   1.0000      -0.405789       -11.0421
  93   1.0000      -0.402310       -10.9474
  94   1.0000      -0.399750       -10.8777
  95   1.0000      -0.398098       -10.8328
  96   1.0000      -0.394634       -10.7385
  97   1.0000      -0.389171       -10.5899
  98   1.0000      -0.387008       -10.5310
  99   1.0000      -0.375448       -10.2165
 100   1.0000      -0.368065       -10.0156
 101   1.0000      -0.353392        -9.6163
 102   1.0000      -0.350842        -9.5469
 103   1.0000      -0.344195        -9.3660
 104   1.0000      -0.314918        -8.5694
 105   1.0000      -0.281329        -7.6553
 106   1.0000      -0.279074        -7.5940
 107   1.0000      -0.257476        -7.0063
 108   1.0000      -0.249080        -6.7778
 109   1.0000      -0.246005        -6.6941
 110   0.0000      -0.007635        -0.2078
 111   0.0000       0.030291         0.8243
 112   0.0000       0.046490         1.2651
 113   0.0000       0.061121         1.6632
 114   0.0000       0.063352         1.7239

MULLIKEN ATOMIC CHARGES AND SPIN POPULATIONS
--------------------------------------------
   0 C :    0.448595    0.061603
   1 C :    0.291560    0.118217
   2 C :    0.242365    0.222134
   3 C :    0.247118    0.250547
   4 C :    0.278802    0.164944
   5 C :    0.285644    0.078753
   6 C :    0.331936    0.032945
   7 C :    0.242936    0.014450
   8 F :   -0.176275   -0.000113
   9 F :   -0.176217   -0.000116
  10 F :   -0.186200    0.010503
  11 F :   -0.209871    0.002490
  12 F :   -0.209593    0.002490
  13 F :   -0.234640    0.004136
  14 F :   -0.232979    0.003974
  15 F :   -0.240221    0.004136
  16 F :   -0.236809    0.003813
  17 F :   -0.225306    0.001638
  18 F :   -0.226071    0.001868
  19 F :   -0.215766    0.000818
  20 F :   -0.215901    0.001381
  21 F :   -0.222737    0.000511
  22 F :   -0.225657    0.000826
  23 O :   -0.508386    0.008983
  24 O :   -0.514394    0.008951
  25 O :   -0.731658   -0.000015
  26 H :    0.324700    0.000000
  27 H :    0.350843   -0.000037
  28 H :    0.347544   -0.000148
  29 O :   -0.726895   -0.000040
  30 H :    0.323532    0.000358
Sum of atomic charges         :   -2.0000000

LOEWDIN ATOMIC CHARGES AND SPIN POPULATIONS
-------------------------------------------
   0 C :   -0.654694    0.052487
   1 C :   -0.476655    0.123829
   2 C :   -0.471188    0.197843
   3 C :   -0.471532    0.212746
   4 C :   -0.468223    0.148949
   5 C :   -0.460175    0.076227
   6 C :   -0.446929    0.037834
   7 C :   -0.649144    0.016840
   8 F :    0.199008    0.001394
   9 F :    0.199265    0.001378
  10 F :    0.165822    0.019329
  11 F :    0.162789    0.007117
  12 F :    0.163167    0.007025
  13 F :    0.131021    0.012623
  14 F :    0.134004    0.012242
  15 F :    0.122607    0.013506
  16 F :    0.127883    0.013023
  17 F :    0.148342    0.008091
  18 F :    0.147216    0.008326
  19 F :    0.173204    0.003191
  20 F :    0.168569    0.003779
  21 F :    0.156886    0.001780
  22 F :    0.152263    0.002170
  23 O :   -0.042781    0.009073
  24 O :   -0.045325    0.009100
  25 O :   -0.373247   -0.000023
  26 H :    0.154380   -0.000002
  27 H :    0.138795   -0.000040
  28 H :    0.135129   -0.000041
  29 O :   -0.368578   -0.000010
  30 H :    0.148123    0.000214

  Mayer bond orders larger than 0.100000
B(  0-C ,  1-C ) :   0.9596 B(  0-C ,  8-F ) :   1.1376 B(  0-C ,  9-F ) :   1.1378
B(  0-C , 10-F ) :   1.0966 B(  1-C ,  2-C ) :   0.9117 B(  1-C , 11-F ) :   1.0365
B(  1-C , 12-F ) :   1.0360 B(  2-C ,  3-C ) :   0.9096 B(  2-C , 13-F ) :   0.9997
B(  2-C , 14-F ) :   1.0011 B(  3-C ,  4-C ) :   0.9083 B(  3-C , 15-F ) :   0.9862
B(  3-C , 16-F ) :   0.9912 B(  4-C ,  5-C ) :   0.8802 B(  4-C , 17-F ) :   1.0187
B(  4-C , 18-F ) :   1.0170 B(  5-C ,  6-C ) :   0.8732 B(  5-C , 19-F ) :   1.0361
B(  5-C , 20-F ) :   1.0485 B(  6-C ,  7-C ) :   0.9008 B(  6-C , 21-F ) :   1.0348
B(  6-C , 22-F ) :   1.0323 B(  7-C , 23-O ) :   1.7341 B(  7-C , 24-O ) :   1.7341
B( 23-O , 28-H ) :   0.1257 B( 24-O , 27-H ) :   0.1180 B( 25-O , 26-H ) :   0.9036
B( 25-O , 27-H ) :   0.8188 B( 28-H , 29-O ) :   0.8244 B( 29-O , 30-H ) :   0.9045

Dispersion correction           -0.049177984
FINAL SINGLE POINT ENERGY     -2106.129162950499

DIPOLE MOMENT
-------------

Method             : SCF
Type of density    : Electron Density
Multiplicity       :   2
Irrep              :   0
Energy             : -2106.0799849661543703 Eh
Relativity type    :
Basis              : AO
                                X                 Y                 Z
Electronic contribution:      2.804459014      37.982689611       7.304651638
Nuclear contribution   :     -2.735211385     -31.178427327      -6.133348561
                        -----------------------------------------
Total Dipole Moment    :      0.069247629       6.804262284       1.171303077
                        -----------------------------------------
Magnitude (a.u.)       :      6.904689086
Magnitude (Debye)      :     17.550324908

Rotational constants in cm-1:             0.013455             0.002922             0.002713
Rotational constants in MHz :           403.377142            87.584395            81.343209

                             ****ORCA TERMINATED NORMALLY****
TOTAL RUN TIME: 0 days 0 hours 13 minutes 22 seconds 656 msec
