                         Program Version 6.0.1  -  RELEASE   -
|  1> !TPSSh def2-TZVP freq d3 TightSCF SlowConv defgrid2
|  2>
|  3> %pal
|  4> nprocs 20
|  5> end
|  6>
|  7> %scf
|  8> MaxIter 1500
|  9> end
| 10>
| 11> %maxcore 8000
| 12>
| 13> !CPCM
| 14> %cpcm smd true
| 15> SMDsolvent "ACETONITRILE"
| 16> end
| 17>
| 18> * xyz -1 2
| 19> 6        7.945172000     27.278987000      3.003814000
| 20> 6        6.647486000     26.736739000      2.323956000
| 21> 6        6.706563000     25.226105000      1.926464000
| 22> 6        5.319457000     24.558856000      1.634070000
| 23> 6        5.415929000     23.221888000      0.959437000
| 24> 6        5.541775000     21.861991000      1.576197000
| 25> 6        6.719188000     21.004001000      1.026500000
| 26> 6        7.049055000     19.752395000      1.927438000
| 27> 9        9.025410000     26.967741000      2.279603000
| 28> 9        8.087954000     26.778749000      4.232961000
| 29> 9        7.860662000     28.610494000      3.095382000
| 30> 9        5.623938000     26.946754000      3.180252000
| 31> 9        6.434622000     27.468769000      1.210506000
| 32> 9        7.463176000     25.119363000      0.809361000
| 33> 9        7.305794000     24.528914000      2.917424000
| 34> 9        4.647264000     24.443573000      2.804094000
| 35> 9        4.628482000     25.404185000      0.819317000
| 36> 9        5.491616000     23.266671000     -0.365597000
| 37> 9        5.718019000     22.000274000      2.920231000
| 38> 9        4.375904000     21.168527000      1.389396000
| 39> 9        6.405792000     20.618906000     -0.248843000
| 40> 9        7.795155000     21.844628000      0.920217000
| 41> 8        8.072134000     19.846101000      2.614908000
| 42> 8        6.211668000     18.826428000      1.830982000
| 43> 8        4.216648000     18.063593000      0.089421000
| 44> 1        4.666040000     17.344465000     -0.373583000
| 45> 1        4.906227000     18.429308000      0.691574000
| 46> *
| 47>
| 48>                          ****END OF INPUT****

CARTESIAN COORDINATES (ANGSTROEM)
---------------------------------
  C      7.945172   27.278987    3.003814
  C      6.647486   26.736739    2.323956
  C      6.706563   25.226105    1.926464
  C      5.319457   24.558856    1.634070
  C      5.415929   23.221888    0.959437
  C      5.541775   21.861991    1.576197
  C      6.719188   21.004001    1.026500
  C      7.049055   19.752395    1.927438
  F      9.025410   26.967741    2.279603
  F      8.087954   26.778749    4.232961
  F      7.860662   28.610494    3.095382
  F      5.623938   26.946754    3.180252
  F      6.434622   27.468769    1.210506
  F      7.463176   25.119363    0.809361
  F      7.305794   24.528914    2.917424
  F      4.647264   24.443573    2.804094
  F      4.628482   25.404185    0.819317
  F      5.491616   23.266671   -0.365597
  F      5.718019   22.000274    2.920231
  F      4.375904   21.168527    1.389396
  F      6.405792   20.618906   -0.248843
  F      7.795155   21.844628    0.920217
  O      8.072134   19.846101    2.614908
  O      6.211668   18.826428    1.830982
  O      4.216648   18.063593    0.089421
  H      4.666040   17.344465   -0.373583
  H      4.906227   18.429308    0.691574

 Total Charge           Charge          ....   -1
 Multiplicity           Mult            ....    2
 Number of Electrons    NEL             ....  201
 Basis Dimension        Dim             ....  787

ORBITAL ENERGIES
----------------
                 SPIN UP ORBITALS
  NO   OCC          E(Eh)            E(eV)
   0   1.0000     -24.663277      -671.1219
   1   1.0000     -24.659548      -671.0204
   2   1.0000     -24.658663      -670.9963
   3   1.0000     -24.657896      -670.9755
   4   1.0000     -24.657313      -670.9596
   5   1.0000     -24.656712      -670.9433
   6   1.0000     -24.656224      -670.9300
   7   1.0000     -24.655570      -670.9122
   8   1.0000     -24.648872      -670.7299
   9   1.0000     -24.648782      -670.7275
  10   1.0000     -24.637010      -670.4071
  11   1.0000     -24.629144      -670.1931
  12   1.0000     -24.616734      -669.8554
  13   1.0000     -24.616376      -669.8456
  14   1.0000     -19.011990      -517.3426
  15   1.0000     -19.000157      -517.0206
  16   1.0000     -18.996744      -516.9277
  17   1.0000     -10.393897      -282.8323
  18   1.0000     -10.341053      -281.3944
  19   1.0000     -10.338003      -281.3114
  20   1.0000     -10.337874      -281.3078
  21   1.0000     -10.316741      -280.7328
  22   1.0000     -10.282314      -279.7960
  23   1.0000     -10.255702      -279.0718
  24   1.0000     -10.199509      -277.5428
  25   1.0000      -1.320464       -35.9316
  26   1.0000      -1.291680       -35.1484
  27   1.0000      -1.276010       -34.7220
  28   1.0000      -1.270444       -34.5705
  29   1.0000      -1.260201       -34.2918
  30   1.0000      -1.252248       -34.0754
  31   1.0000      -1.235010       -33.6063
  32   1.0000      -1.233466       -33.5643
  33   1.0000      -1.229762       -33.4635
  34   1.0000      -1.226195       -33.3665
  35   1.0000      -1.219048       -33.1720
  36   1.0000      -1.213046       -33.0087
  37   1.0000      -1.198023       -32.5999
  38   1.0000      -1.177826       -32.0503
  39   1.0000      -1.007746       -27.4222
  40   1.0000      -0.946831       -25.7646
  41   1.0000      -0.924668       -25.1615
  42   1.0000      -0.826701       -22.4957
  43   1.0000      -0.805392       -21.9158
  44   1.0000      -0.767989       -20.8981
  45   1.0000      -0.731353       -19.9011
  46   1.0000      -0.687781       -18.7155
  47   1.0000      -0.662749       -18.0343
  48   1.0000      -0.634136       -17.2557
  49   1.0000      -0.617694       -16.8083
  50   1.0000      -0.614550       -16.7228
  51   1.0000      -0.607541       -16.5320
  52   1.0000      -0.594486       -16.1768
  53   1.0000      -0.589440       -16.0395
  54   1.0000      -0.587853       -15.9963
  55   1.0000      -0.578865       -15.7517
  56   1.0000      -0.574301       -15.6275
  57   1.0000      -0.564030       -15.3480
  58   1.0000      -0.561408       -15.2767
  59   1.0000      -0.551531       -15.0079
  60   1.0000      -0.550633       -14.9835
  61   1.0000      -0.534852       -14.5541
  62   1.0000      -0.523623       -14.2485
  63   1.0000      -0.496568       -13.5123
  64   1.0000      -0.482068       -13.1177
  65   1.0000      -0.479635       -13.0515
  66   1.0000      -0.477137       -12.9835
  67   1.0000      -0.472317       -12.8524
  68   1.0000      -0.468010       -12.7352
  69   1.0000      -0.464408       -12.6372
  70   1.0000      -0.458077       -12.4649
  71   1.0000      -0.454124       -12.3573
  72   1.0000      -0.449765       -12.2387
  73   1.0000      -0.442506       -12.0412
  74   1.0000      -0.440913       -11.9979
  75   1.0000      -0.438602       -11.9350
  76   1.0000      -0.434386       -11.8202
  77   1.0000      -0.432519       -11.7694
  78   1.0000      -0.431166       -11.7326
  79   1.0000      -0.422652       -11.5009
  80   1.0000      -0.421846       -11.4790
  81   1.0000      -0.418046       -11.3756
  82   1.0000      -0.414516       -11.2796
  83   1.0000      -0.414324       -11.2743
  84   1.0000      -0.411083       -11.1861
  85   1.0000      -0.410143       -11.1605
  86   1.0000      -0.403172       -10.9709
  87   1.0000      -0.400545       -10.8994
  88   1.0000      -0.391269       -10.6470
  89   1.0000      -0.388533       -10.5725
  90   1.0000      -0.382838       -10.4176
  91   1.0000      -0.380916       -10.3653
  92   1.0000      -0.372145       -10.1266
  93   1.0000      -0.348184        -9.4746
  94   1.0000      -0.332207        -9.0398
  95   1.0000      -0.330072        -8.9817
  96   1.0000      -0.258246        -7.0272
  97   1.0000      -0.250619        -6.8197
  98   1.0000      -0.242110        -6.5881
  99   1.0000      -0.229102        -6.2342
 100   1.0000      -0.223296        -6.0762
 101   0.0000      -0.013762        -0.3745
 102   0.0000       0.008709         0.2370
 103   0.0000       0.011599         0.3156
 104   0.0000       0.038102         1.0368
 105   0.0000       0.059119         1.6087

                 SPIN DOWN ORBITALS
  NO   OCC          E(Eh)            E(eV)
   0   1.0000     -24.659552      -671.0205
   1   1.0000     -24.658992      -671.0053
   2   1.0000     -24.658661      -670.9963
   3   1.0000     -24.657855      -670.9743
   4   1.0000     -24.657321      -670.9598
   5   1.0000     -24.656699      -670.9429
   6   1.0000     -24.656217      -670.9298
   7   1.0000     -24.655559      -670.9119
   8   1.0000     -24.648446      -670.7183
   9   1.0000     -24.648281      -670.7138
  10   1.0000     -24.636906      -670.4043
  11   1.0000     -24.627833      -670.1574
  12   1.0000     -24.616602      -669.8518
  13   1.0000     -24.616334      -669.8445
  14   1.0000     -19.011989      -517.3425
  15   1.0000     -19.000126      -517.0197
  16   1.0000     -18.996564      -516.9228
  17   1.0000     -10.393832      -282.8305
  18   1.0000     -10.340899      -281.3902
  19   1.0000     -10.338929      -281.3366
  20   1.0000     -10.337161      -281.2884
  21   1.0000     -10.317613      -280.7565
  22   1.0000     -10.281878      -279.7841
  23   1.0000     -10.240090      -278.6470
  24   1.0000     -10.199482      -277.5420
  25   1.0000      -1.320418       -35.9304
  26   1.0000      -1.291216       -35.1358
  27   1.0000      -1.275508       -34.7083
  28   1.0000      -1.268939       -34.5296
  29   1.0000      -1.257934       -34.2301
  30   1.0000      -1.246495       -33.9189
  31   1.0000      -1.234951       -33.6047
  32   1.0000      -1.233075       -33.5537
  33   1.0000      -1.229711       -33.4621
  34   1.0000      -1.226006       -33.3613
  35   1.0000      -1.218947       -33.1692
  36   1.0000      -1.212044       -32.9814
  37   1.0000      -1.196284       -32.5525
  38   1.0000      -1.177552       -32.0428
  39   1.0000      -1.007566       -27.4173
  40   1.0000      -0.946818       -25.7642
  41   1.0000      -0.924463       -25.1559
  42   1.0000      -0.819037       -22.2871
  43   1.0000      -0.796815       -21.6824
  44   1.0000      -0.766639       -20.8613
  45   1.0000      -0.725591       -19.7443
  46   1.0000      -0.684405       -18.6236
  47   1.0000      -0.661951       -18.0126
  48   1.0000      -0.630207       -17.1488
  49   1.0000      -0.616361       -16.7720
  50   1.0000      -0.612917       -16.6783
  51   1.0000      -0.607368       -16.5273
  52   1.0000      -0.593014       -16.1367
  53   1.0000      -0.587973       -15.9996
  54   1.0000      -0.584543       -15.9062
  55   1.0000      -0.577636       -15.7183
  56   1.0000      -0.572796       -15.5866
  57   1.0000      -0.560927       -15.2636
  58   1.0000      -0.560083       -15.2406
  59   1.0000      -0.550170       -14.9709
  60   1.0000      -0.550040       -14.9674
  61   1.0000      -0.533178       -14.5085
  62   1.0000      -0.522169       -14.2090
  63   1.0000      -0.481951       -13.1146
  64   1.0000      -0.480254       -13.0684
  65   1.0000      -0.477548       -12.9947
  66   1.0000      -0.472926       -12.8690
  67   1.0000      -0.469145       -12.7661
  68   1.0000      -0.466832       -12.7031
  69   1.0000      -0.464024       -12.6267
  70   1.0000      -0.456009       -12.4086
  71   1.0000      -0.453156       -12.3310
  72   1.0000      -0.448604       -12.2071
  73   1.0000      -0.441233       -12.0066
  74   1.0000      -0.440316       -11.9816
  75   1.0000      -0.437992       -11.9184
  76   1.0000      -0.432438       -11.7672
  77   1.0000      -0.431037       -11.7291
  78   1.0000      -0.430280       -11.7085
  79   1.0000      -0.421738       -11.4761
  80   1.0000      -0.421147       -11.4600
  81   1.0000      -0.417785       -11.3685
  82   1.0000      -0.413636       -11.2556
  83   1.0000      -0.412814       -11.2332
  84   1.0000      -0.410775       -11.1777
  85   1.0000      -0.409571       -11.1450
  86   1.0000      -0.402498       -10.9525
  87   1.0000      -0.399580       -10.8731
  88   1.0000      -0.389878       -10.6091
  89   1.0000      -0.388215       -10.5639
  90   1.0000      -0.382526       -10.4090
  91   1.0000      -0.379486       -10.3264
  92   1.0000      -0.371897       -10.1198
  93   1.0000      -0.345376        -9.3982
  94   1.0000      -0.331917        -9.0319
  95   1.0000      -0.328449        -8.9376
  96   1.0000      -0.258226        -7.0267
  97   1.0000      -0.241961        -6.5841
  98   1.0000      -0.229438        -6.2433
  99   1.0000      -0.224484        -6.1085
 100   0.0000      -0.125697        -3.4204
 101   0.0000      -0.009746        -0.2652
 102   0.0000       0.012010         0.3268
 103   0.0000       0.015375         0.4184
 104   0.0000       0.042581         1.1587

MULLIKEN ATOMIC CHARGES AND SPIN POPULATIONS
--------------------------------------------
   0 C :    0.410262    0.002824
   1 C :    0.299058    0.005885
   2 C :    0.259205    0.034069
   3 C :    0.348868   -0.025717
   4 C :    0.110682    0.856576
   5 C :    0.302475   -0.013966
   6 C :    0.304212    0.008783
   7 C :    0.213781    0.000116
   8 F :   -0.136711   -0.000071
   9 F :   -0.133950    0.000032
  10 F :   -0.134229    0.000799
  11 F :   -0.148605   -0.000195
  12 F :   -0.146643    0.000146
  13 F :   -0.159818   -0.000708
  14 F :   -0.159248   -0.000529
  15 F :   -0.153291    0.006379
  16 F :   -0.160086    0.008576
  17 F :   -0.136021    0.081074
  18 F :   -0.178448    0.000775
  19 F :   -0.173502    0.024871
  20 F :   -0.197663    0.002822
  21 F :   -0.197080    0.000098
  22 O :   -0.458464    0.006168
  23 O :   -0.522514    0.001114
  24 O :   -0.740371    0.000011
  25 H :    0.330911    0.000007
  26 H :    0.357190    0.000062
Sum of atomic charges         :   -1.0000000

LOEWDIN ATOMIC CHARGES AND SPIN POPULATIONS
-------------------------------------------
   0 C :   -0.667523    0.001945
   1 C :   -0.465554    0.006642
   2 C :   -0.456932    0.026355
   3 C :   -0.481390    0.067047
   4 C :   -0.163352    0.658923
   5 C :   -0.476177    0.056731
   6 C :   -0.435103    0.013358
   7 C :   -0.666502    0.002023
   8 F :    0.225681   -0.000068
   9 F :    0.227620    0.000053
  10 F :    0.225062    0.000914
  11 F :    0.222971   -0.000135
  12 F :    0.223159    0.000246
  13 F :    0.221306    0.000617
  14 F :    0.223969    0.000630
  15 F :    0.216468    0.008432
  16 F :    0.207130    0.009682
  17 F :    0.254645    0.104882
  18 F :    0.202249    0.002761
  19 F :    0.186081    0.027497
  20 F :    0.163614    0.003277
  21 F :    0.166406    0.001451
  22 O :   -0.025110    0.005677
  23 O :   -0.050469    0.001016
  24 O :   -0.372994    0.000036
  25 H :    0.154954    0.000004
  26 H :    0.139791    0.000006

  Mayer bond orders larger than 0.100000
B(  0-C ,  1-C ) :   0.9677 B(  0-C ,  8-F ) :   1.1594 B(  0-C ,  9-F ) :   1.1697
B(  0-C , 10-F ) :   1.1605 B(  1-C ,  2-C ) :   0.9302 B(  1-C , 11-F ) :   1.1027
B(  1-C , 12-F ) :   1.1100 B(  2-C ,  3-C ) :   0.9323 B(  2-C , 13-F ) :   1.0756
B(  2-C , 14-F ) :   1.0853 B(  3-C ,  4-C ) :   1.0389 B(  3-C , 15-F ) :   1.1091
B(  3-C , 16-F ) :   1.0771 B(  4-C ,  5-C ) :   1.0370 B(  4-C , 17-F ) :   1.1309
B(  5-C ,  6-C ) :   0.9164 B(  5-C , 18-F ) :   1.0595 B(  5-C , 19-F ) :   1.0728
B(  6-C ,  7-C ) :   0.8708 B(  6-C , 20-F ) :   1.0372 B(  6-C , 21-F ) :   1.0498
B(  7-C , 22-O ) :   1.9091 B(  7-C , 23-O ) :   1.6775 B( 23-O , 26-H ) :   0.1120
B( 24-O , 25-H ) :   0.8990 B( 24-O , 26-H ) :   0.8131

Dispersion correction           -0.031731964
FINAL SINGLE POINT ENERGY     -1930.429993443859

DIPOLE MOMENT
-------------

Method             : SCF
Type of density    : Electron Density
Multiplicity       :   2
Irrep              :   0
Energy             : -1930.3982614795941117 Eh
Relativity type    :
Basis              : AO
                                X                 Y                 Z
Electronic contribution:      4.026531049      30.440315534       3.717968210
Nuclear contribution   :     -3.906410178     -23.158839839      -3.877491431
                        -----------------------------------------
Total Dipole Moment    :      0.120120870       7.281475694      -0.159523221
                        -----------------------------------------
Magnitude (a.u.)       :      7.284213408
Magnitude (Debye)      :     18.514999071

VIBRATIONAL FREQUENCIES
-----------------------

Scaling factor for frequencies =  1.000000000  (already applied!)

     0:       0.00 cm**-1
     1:       0.00 cm**-1
     2:       0.00 cm**-1
     3:       0.00 cm**-1
     4:       0.00 cm**-1
     5:       0.00 cm**-1
     6:      17.46 cm**-1
     7:      22.77 cm**-1
     8:      28.82 cm**-1
     9:      37.61 cm**-1
    10:      40.59 cm**-1
    11:      51.17 cm**-1
    12:      54.13 cm**-1
    13:      57.45 cm**-1
    14:      63.43 cm**-1
    15:      83.41 cm**-1
    16:      84.95 cm**-1
    17:     103.85 cm**-1
    18:     118.34 cm**-1
    19:     161.34 cm**-1
    20:     168.89 cm**-1
    21:     179.97 cm**-1
    22:     185.01 cm**-1
    23:     194.64 cm**-1
    24:     208.26 cm**-1
    25:     219.46 cm**-1
    26:     233.62 cm**-1
    27:     234.63 cm**-1
    28:     255.20 cm**-1
    29:     272.61 cm**-1
    30:     278.60 cm**-1
    31:     306.14 cm**-1
    32:     319.77 cm**-1
    33:     336.11 cm**-1
    34:     348.37 cm**-1
    35:     354.48 cm**-1
    36:     361.46 cm**-1
    37:     367.20 cm**-1
    38:     388.57 cm**-1
    39:     404.50 cm**-1
    40:     426.64 cm**-1
    41:     443.35 cm**-1
    42:     500.55 cm**-1
    43:     515.97 cm**-1
    44:     539.03 cm**-1
    45:     543.49 cm**-1
    46:     561.29 cm**-1
    47:     575.20 cm**-1
    48:     589.72 cm**-1
    49:     616.83 cm**-1
    50:     641.59 cm**-1
    51:     679.47 cm**-1
    52:     687.70 cm**-1
    53:     716.99 cm**-1
    54:     730.36 cm**-1
    55:     766.10 cm**-1
    56:     791.63 cm**-1
    57:     856.64 cm**-1
    58:     980.97 cm**-1
    59:    1032.81 cm**-1
    60:    1078.25 cm**-1
    61:    1085.11 cm**-1
    62:    1094.99 cm**-1
    63:    1111.03 cm**-1
    64:    1122.33 cm**-1
    65:    1132.34 cm**-1
    66:    1137.11 cm**-1
    67:    1146.95 cm**-1
    68:    1156.60 cm**-1
    69:    1174.06 cm**-1
    70:    1177.44 cm**-1
    71:    1198.93 cm**-1
    72:    1248.29 cm**-1
    73:    1308.97 cm**-1
    74:    1317.82 cm**-1
    75:    1335.95 cm**-1
    76:    1378.70 cm**-1
    77:    1662.24 cm**-1
    78:    1713.69 cm**-1
    79:    3398.38 cm**-1
    80:    3790.84 cm**-1

IR SPECTRUM
-----------

 Mode   freq       eps      Int      T**2         TX        TY        TZ
       cm**-1   L/(mol*cm) km/mol    a.u.
----------------------------------------------------------------------------
  6:     17.46   0.000108    0.55  0.001928  (-0.028484 -0.030312 -0.014048)
  7:     22.77   0.000316    1.60  0.004329  ( 0.029772  0.057963 -0.009106)
  8:     28.82   0.000408    2.06  0.004418  (-0.046028 -0.024736  0.041082)
  9:     37.61   0.000915    4.62  0.007591  ( 0.031943  0.023753  0.077503)
 10:     40.59   0.000286    1.44  0.002198  ( 0.012543  0.029279 -0.034402)
 11:     51.17   0.000076    0.38  0.000461  (-0.005012  0.004410 -0.020403)
 12:     54.13   0.001213    6.13  0.006991  ( 0.026973  0.065774 -0.044013)
 13:     57.45   0.000362    1.83  0.001968  ( 0.002761  0.026171 -0.035713)
 14:     63.43   0.006361   32.15  0.031299  (-0.043148 -0.069624  0.156811)
 15:     83.41   0.017233   87.09  0.064469  ( 0.079570  0.164944 -0.175872)
 16:     84.95   0.005893   29.78  0.021649  ( 0.025769  0.109638 -0.094682)
 17:    103.85   0.000908    4.59  0.002729  ( 0.032412  0.015003 -0.038126)
 18:    118.34   0.000627    3.17  0.001653  ( 0.021442 -0.024958 -0.023889)
 19:    161.34   0.000060    0.30  0.000116  (-0.005396 -0.000096 -0.009295)
 20:    168.89   0.000600    3.03  0.001109  (-0.004769 -0.030110 -0.013386)
 21:    179.97   0.001683    8.50  0.002918  (-0.012578 -0.020716 -0.048277)
 22:    185.01   0.002460   12.43  0.004149  ( 0.054811  0.023184  0.024646)
 23:    194.64   0.001788    9.04  0.002867  ( 0.032484  0.036587 -0.021756)
 24:    208.26   0.000643    3.25  0.000963  (-0.016460 -0.014801 -0.021750)
 25:    219.46   0.000511    2.58  0.000727  ( 0.014117  0.019417  0.012256)
 26:    233.62   0.000115    0.58  0.000154  ( 0.011513 -0.003597  0.002866)
 27:    234.63   0.000085    0.43  0.000112  (-0.007240 -0.007011  0.003293)
 28:    255.20   0.002169   10.96  0.002652  ( 0.024730  0.040991  0.018976)
 29:    272.61   0.000524    2.65  0.000600  (-0.005867  0.022550 -0.007571)
 30:    278.60   0.001049    5.30  0.001175  ( 0.005861  0.031323  0.012648)
 31:    306.14   0.000144    0.73  0.000147  (-0.005672  0.009837  0.004245)
 32:    319.77   0.000203    1.03  0.000198  ( 0.004660 -0.012500 -0.004486)
 33:    336.11   0.000121    0.61  0.000112  ( 0.003840  0.002200  0.009618)
 34:    348.37   0.000028    0.14  0.000025  ( 0.002555 -0.004298 -0.000472)
 35:    354.48   0.000359    1.81  0.000316  ( 0.001698  0.003511  0.017345)
 36:    361.46   0.001929    9.75  0.001666  (-0.002279 -0.038037 -0.014618)
 37:    367.20   0.000044    0.22  0.000037  ( 0.002362  0.005252 -0.002063)
 38:    388.57   0.000144    0.73  0.000116  (-0.006993 -0.002323  0.007849)
 39:    404.50   0.019391   97.99  0.014960  (-0.031167 -0.083708 -0.083555)
 40:    426.64   0.000499    2.52  0.000365  ( 0.004053 -0.007609 -0.017039)
 41:    443.35   0.002021   10.21  0.001423  (-0.011134  0.019549  0.030272)
 42:    500.55   0.000330    1.67  0.000206  (-0.012548 -0.003050  0.006255)
 43:    515.97   0.007579   38.30  0.004584  (-0.010895  0.066009  0.010390)
 44:    539.03   0.000830    4.19  0.000480  ( 0.005478  0.018621 -0.010176)
 45:    543.49   0.004695   23.73  0.002696  (-0.014996  0.037372  0.032774)
 46:    561.29   0.003849   19.45  0.002140  (-0.041711  0.017415 -0.009848)
 47:    575.20   0.007132   36.04  0.003869  ( 0.038311  0.048659  0.005813)
 48:    589.72   0.001944    9.83  0.001029  (-0.013132  0.024556  0.015918)
 49:    616.83   0.007567   38.24  0.003828  (-0.000118  0.061124  0.009596)
 50:    641.59   0.009643   48.73  0.004690  ( 0.014372 -0.066870  0.003448)
 51:    679.47   0.018794   94.98  0.008632  ( 0.007536  0.091512  0.014157)
 52:    687.70   0.007334   37.06  0.003328  (-0.053007 -0.000851 -0.022746)
 53:    716.99   0.021440  108.35  0.009332  ( 0.070888  0.060225  0.026066)
 54:    730.36   0.019962  100.88  0.008529  (-0.031005 -0.063000  0.059990)
 55:    766.10   0.006666   33.69  0.002715  (-0.021453 -0.046840 -0.007820)
 56:    791.63   0.026361  133.22  0.010392  ( 0.015926 -0.069943  0.072430)
 57:    856.64   0.009267   46.83  0.003376  ( 0.047605  0.027016  0.019487)
 58:    980.97   0.004292   21.69  0.001365  ( 0.024735 -0.010365 -0.025417)
 59:   1032.81   0.037103  187.50  0.011211  (-0.052595 -0.091881  0.001494)
 60:   1078.25   0.055789  281.94  0.016146  ( 0.111618  0.038116  0.047273)
 61:   1085.11   0.027726  140.12  0.007974  (-0.054649 -0.056888 -0.041842)
 62:   1094.99   0.025730  130.03  0.007333  (-0.047225  0.021568  0.068099)
 63:   1111.03   0.086980  439.56  0.024431  ( 0.139814 -0.056415  0.041232)
 64:   1122.33   0.048146  243.31  0.013387  (-0.028577 -0.011933  0.111480)
 65:   1132.34   0.003876   19.59  0.001068  ( 0.027696  0.003362 -0.017026)
 66:   1137.11   0.045204  228.44  0.012406  (-0.006864 -0.014046  0.110278)
 67:   1146.95   0.070196  354.74  0.019099  ( 0.015221 -0.077624  0.113321)
 68:   1156.60   0.124840  630.89  0.033683  ( 0.105919 -0.047693 -0.142090)
 69:   1174.06   0.061009  308.32  0.016216  ( 0.020948  0.073208 -0.102069)
 70:   1177.44   0.018694   94.47  0.004954  (-0.002737  0.007134  0.069972)
 71:   1198.93   0.022037  111.37  0.005736  ( 0.002081 -0.074869  0.011237)
 72:   1248.29   0.003571   18.05  0.000893  ( 0.006790 -0.027476  0.009578)
 73:   1308.97   0.018049   91.21  0.004303  (-0.040373 -0.006999 -0.051226)
 74:   1317.82   0.019172   96.89  0.004540  ( 0.005416  0.061725  0.026471)
 75:   1335.95   0.076696  387.59  0.017915  ( 0.010278 -0.125006  0.046724)
 76:   1378.70   0.011339   57.30  0.002567  (-0.010112 -0.047027 -0.015897)
 77:   1662.24   0.026802  135.45  0.005032  (-0.068237  0.011279 -0.015756)
 78:   1713.69   0.180481  912.07  0.032866  (-0.146752 -0.078819 -0.071533)
 79:   3398.38   0.218677  1105.10  0.020080  (-0.094705 -0.070738 -0.078151)
 80:   3790.84   0.013883   70.16  0.001143  ( 0.003513  0.026125  0.021165)

--------------------------
THERMOCHEMISTRY AT 298.15K
--------------------------

Temperature         ...   298.15 K
Pressure            ...     1.00 atm
Total Mass          ...   412.07 AMU
Quasi RRHO          ...     True
Cut-Off Frequency   ...     1.00 cm^-1

Throughout the following assumptions are being made:
  (1) The electronic state is orbitally nondegenerate
      but the spin degeneracy is treated
  (2) There are no thermally accessible electronically excited states
  (3) Hindered rotations indicated by low frequency modes are not
      treated as such but are treated as vibrations and this may
      cause some error
  (4) All equations used are the standard statistical mechanics
      equations for an ideal gas
  (5) All vibrations are strictly harmonic

freq.      17.46  E(vib)   ...       0.57
freq.      22.77  E(vib)   ...       0.56
freq.      28.82  E(vib)   ...       0.55
freq.      37.61  E(vib)   ...       0.54
freq.      40.59  E(vib)   ...       0.54
freq.      51.17  E(vib)   ...       0.52
freq.      54.13  E(vib)   ...       0.52
freq.      57.45  E(vib)   ...       0.51
freq.      63.43  E(vib)   ...       0.51
freq.      83.41  E(vib)   ...       0.48
freq.      84.95  E(vib)   ...       0.48
freq.     103.85  E(vib)   ...       0.46
freq.     118.34  E(vib)   ...       0.44
freq.     161.34  E(vib)   ...       0.39
freq.     168.89  E(vib)   ...       0.38
freq.     179.97  E(vib)   ...       0.37
freq.     185.01  E(vib)   ...       0.37
freq.     194.64  E(vib)   ...       0.36
freq.     208.26  E(vib)   ...       0.34
freq.     219.46  E(vib)   ...       0.33
freq.     233.62  E(vib)   ...       0.32
freq.     234.63  E(vib)   ...       0.32
freq.     255.20  E(vib)   ...       0.30
freq.     272.61  E(vib)   ...       0.29
freq.     278.60  E(vib)   ...       0.28
freq.     306.14  E(vib)   ...       0.26
freq.     319.77  E(vib)   ...       0.25
freq.     336.11  E(vib)   ...       0.24
freq.     348.37  E(vib)   ...       0.23
freq.     354.48  E(vib)   ...       0.22
freq.     361.46  E(vib)   ...       0.22
freq.     367.20  E(vib)   ...       0.22
freq.     388.57  E(vib)   ...       0.20
freq.     404.50  E(vib)   ...       0.19
freq.     426.64  E(vib)   ...       0.18
freq.     443.35  E(vib)   ...       0.17
freq.     500.55  E(vib)   ...       0.14
freq.     515.97  E(vib)   ...       0.13
freq.     539.03  E(vib)   ...       0.12
freq.     543.49  E(vib)   ...       0.12
freq.     561.29  E(vib)   ...       0.11
freq.     575.20  E(vib)   ...       0.11
freq.     589.72  E(vib)   ...       0.10
freq.     616.83  E(vib)   ...       0.09
freq.     641.59  E(vib)   ...       0.09
freq.     679.47  E(vib)   ...       0.08
freq.     687.70  E(vib)   ...       0.07
freq.     716.99  E(vib)   ...       0.07
freq.     730.36  E(vib)   ...       0.06
freq.     766.10  E(vib)   ...       0.06
freq.     791.63  E(vib)   ...       0.05
freq.     856.64  E(vib)   ...       0.04
freq.     980.97  E(vib)   ...       0.02
freq.    1032.81  E(vib)   ...       0.02
freq.    1078.25  E(vib)   ...       0.02
freq.    1085.11  E(vib)   ...       0.02
freq.    1094.99  E(vib)   ...       0.02
freq.    1111.03  E(vib)   ...       0.01
freq.    1122.33  E(vib)   ...       0.01
freq.    1132.34  E(vib)   ...       0.01
freq.    1137.11  E(vib)   ...       0.01
freq.    1146.95  E(vib)   ...       0.01
freq.    1156.60  E(vib)   ...       0.01
freq.    1174.06  E(vib)   ...       0.01
freq.    1177.44  E(vib)   ...       0.01
freq.    1198.93  E(vib)   ...       0.01
freq.    1248.29  E(vib)   ...       0.01
freq.    1308.97  E(vib)   ...       0.01
freq.    1317.82  E(vib)   ...       0.01
freq.    1335.95  E(vib)   ...       0.01
freq.    1378.70  E(vib)   ...       0.01
freq.    1662.24  E(vib)   ...       0.00
freq.    1713.69  E(vib)   ...       0.00
freq.    3398.38  E(vib)   ...       0.00
freq.    3790.84  E(vib)   ...       0.00

------------
INNER ENERGY
------------

The inner energy is: U= E(el) + E(ZPE) + E(vib) + E(rot) + E(trans)
    E(el)   - is the total energy from the electronic structure calculation
              = E(kin-el) + E(nuc-el) + E(el-el) + E(nuc-nuc)
    E(ZPE)  - the the zero temperature vibrational energy from the frequency calculation
    E(vib)  - the the finite temperature correction to E(ZPE) due to population
              of excited vibrational states
    E(rot)  - is the rotational thermal energy
    E(trans)- is the translational thermal energy

Summary of contributions to the inner energy U:
Electronic energy                ...  -1930.42999344 Eh
Zero point energy                ...      0.11506844 Eh      72.21 kcal/mol
Thermal vibrational correction   ...      0.02358584 Eh      14.80 kcal/mol
Thermal rotational correction    ...      0.00141627 Eh       0.89 kcal/mol
Thermal translational correction ...      0.00141627 Eh       0.89 kcal/mol
-----------------------------------------------------------------------
Total thermal energy                  -1930.28850663 Eh

Summary of corrections to the electronic energy:
(perhaps to be used in another calculation)
Total thermal correction                  0.02641838 Eh      16.58 kcal/mol
Non-thermal (ZPE) correction              0.11506844 Eh      72.21 kcal/mol
-----------------------------------------------------------------------
Total correction                          0.14148682 Eh      88.78 kcal/mol

--------
ENTHALPY
--------

The enthalpy is H = U + kB*T
                kB is Boltzmann's constant
Total thermal energy              ...  -1930.28850663 Eh
Thermal Enthalpy correction       ...      0.00094421 Eh       0.59 kcal/mol
-----------------------------------------------------------------------
Total Enthalpy                    ...  -1930.28756242 Eh

Note: Only C1 symmetry has been detected, increase convergence thresholds
      if your molecule has a higher symmetry. Symmetry factor of 1.0 is
      used for the rotational entropy correction.

Note: Rotational entropy computed according to Herzberg
Infrared and Raman Spectra, Chapter V,1, Van Nostrand Reinhold, 1945
Point Group:  C1, Symmetry Number:   1
Rotational constants in cm-1:     0.016045     0.003921     0.003657

Vibrational entropy computed according to the QRRHO of S. Grimme
Chem.Eur.J. 2012 18 9955 using a reference frequency of 100.0 cm-1

-------
ENTROPY
-------

The entropy contributions are T*S = T*(S(el)+S(vib)+S(rot)+S(trans))
     S(el)   - electronic entropy
     S(vib)  - vibrational entropy
     S(rot)  - rotational entropy

                             ****ORCA TERMINATED NORMALLY****
TOTAL RUN TIME: 0 days 0 hours 25 minutes 18 seconds 803 msec
