                         Program Version 6.0.1  -  RELEASE   -
|  1> !B3LYP def2-TZVP freq d3 TightSCF SlowConv defgrid2
|  2>
|  3> %pal
|  4> nprocs 20
|  5> end
|  6>
|  7> %scf
|  8> MaxIter 1500
|  9> end
| 10>
| 11> %maxcore 8000
| 12>
| 13> !CPCM
| 14> %cpcm smd true
| 15> SMDsolvent "ACETONITRILE"
| 16> end
| 17>
| 18> * xyz -2 2
| 19> 6        4.989898000      0.212776000     -0.279300000
| 20> 8        5.465404000     -0.255868000     -1.326046000
| 21> 8        5.359603000      1.166111000      0.428361000
| 22> 6        3.677995000     -0.494573000      0.240850000
| 23> 6        2.378966000      0.309871000     -0.061942000
| 24> 6        0.996908000     -0.416423000      0.037366000
| 25> 6       -0.360875000      0.362783000      0.025894000
| 26> 6       -1.821221000     -0.243269000     -0.012516000
| 27> 6       -3.198645000      0.498754000     -0.013022000
| 28> 6       -4.569779000     -0.214722000     -0.044465000
| 29> 9        3.534380000     -1.742303000     -0.309015000
| 30> 9        3.740831000     -0.689004000      1.597847000
| 31> 9        2.350089000      1.375660000      0.789860000
| 32> 9        2.485610000      0.802423000     -1.331875000
| 33> 9        0.946150000     -1.292724000     -1.019841000
| 34> 9        1.016390000     -1.144521000      1.202272000
| 35> 9       -0.341547000      1.156880000      1.160848000
| 36> 9       -0.293688000      1.178160000     -1.100641000
| 37> 9       -1.879339000     -1.067734000      1.113884000
| 38> 9       -1.851129000     -1.027261000     -1.161021000
| 39> 9       -3.202673000      1.320008000     -1.120904000
| 40> 9       -3.229351000      1.279504000      1.121763000
| 41> 9       -4.715486000     -1.012585000      1.026044000
| 42> 9       -5.638979000      0.637646000     -0.039177000
| 43> 9       -4.688108000     -0.966034000     -1.151680000
| 44> *
| 45>
| 46>                          ****END OF INPUT****

CARTESIAN COORDINATES (ANGSTROEM)
---------------------------------
  C      4.989898    0.212776   -0.279300
  O      5.465404   -0.255868   -1.326046
  O      5.359603    1.166111    0.428361
  C      3.677995   -0.494573    0.240850
  C      2.378966    0.309871   -0.061942
  C      0.996908   -0.416423    0.037366
  C     -0.360875    0.362783    0.025894
  C     -1.821221   -0.243269   -0.012516
  C     -3.198645    0.498754   -0.013022
  C     -4.569779   -0.214722   -0.044465
  F      3.534380   -1.742303   -0.309015
  F      3.740831   -0.689004    1.597847
  F      2.350089    1.375660    0.789860
  F      2.485610    0.802423   -1.331875
  F      0.946150   -1.292724   -1.019841
  F      1.016390   -1.144521    1.202272
  F     -0.341547    1.156880    1.160848
  F     -0.293688    1.178160   -1.100641
  F     -1.879339   -1.067734    1.113884
  F     -1.851129   -1.027261   -1.161021
  F     -3.202673    1.320008   -1.120904
  F     -3.229351    1.279504    1.121763
  F     -4.715486   -1.012585    1.026044
  F     -5.638979    0.637646   -0.039177
  F     -4.688108   -0.966034   -1.151680

 Total Charge           Charge          ....   -2
 Multiplicity           Mult            ....    2
 Number of Electrons    NEL             ....  201
 Basis Dimension        Dim             ....  775

ORBITAL ENERGIES
----------------
                 SPIN UP ORBITALS
  NO   OCC          E(Eh)            E(eV)
   0   1.0000     -24.718265      -672.6182
   1   1.0000     -24.718235      -672.6174
   2   1.0000     -24.709605      -672.3825
   3   1.0000     -24.699135      -672.0976
   4   1.0000     -24.698164      -672.0712
   5   1.0000     -24.697654      -672.0573
   6   1.0000     -24.696651      -672.0300
   7   1.0000     -24.694893      -671.9822
   8   1.0000     -24.692708      -671.9227
   9   1.0000     -24.683756      -671.6792
  10   1.0000     -24.683620      -671.6755
  11   1.0000     -24.683505      -671.6723
  12   1.0000     -24.682718      -671.6509
  13   1.0000     -24.682518      -671.6455
  14   1.0000     -24.681846      -671.6272
  15   1.0000     -19.050933      -518.4023
  16   1.0000     -19.049918      -518.3746
  17   1.0000     -10.424034      -283.6524
  18   1.0000     -10.351223      -281.6711
  19   1.0000     -10.350932      -281.6632
  20   1.0000     -10.346747      -281.5493
  21   1.0000     -10.334512      -281.2164
  22   1.0000     -10.334348      -281.2119
  23   1.0000     -10.326690      -281.0035
  24   1.0000     -10.243414      -278.7375
  25   1.0000      -1.317344       -35.8467
  26   1.0000      -1.274546       -34.6822
  27   1.0000      -1.261858       -34.3369
  28   1.0000      -1.254788       -34.1445
  29   1.0000      -1.245284       -33.8859
  30   1.0000      -1.241609       -33.7859
  31   1.0000      -1.234493       -33.5923
  32   1.0000      -1.231132       -33.5008
  33   1.0000      -1.221946       -33.2508
  34   1.0000      -1.212333       -32.9892
  35   1.0000      -1.207073       -32.8461
  36   1.0000      -1.201110       -32.6839
  37   1.0000      -1.192084       -32.4383
  38   1.0000      -1.188330       -32.3361
  39   1.0000      -1.184664       -32.2363
  40   1.0000      -1.013463       -27.5777
  41   1.0000      -0.929957       -25.3054
  42   1.0000      -0.789675       -21.4882
  43   1.0000      -0.784225       -21.3398
  44   1.0000      -0.754680       -20.5359
  45   1.0000      -0.723500       -19.6874
  46   1.0000      -0.685962       -18.6660
  47   1.0000      -0.655215       -17.8293
  48   1.0000      -0.632687       -17.2163
  49   1.0000      -0.603664       -16.4265
  50   1.0000      -0.601726       -16.3738
  51   1.0000      -0.599737       -16.3197
  52   1.0000      -0.587842       -15.9960
  53   1.0000      -0.583054       -15.8657
  54   1.0000      -0.579816       -15.7776
  55   1.0000      -0.566605       -15.4181
  56   1.0000      -0.564040       -15.3483
  57   1.0000      -0.555952       -15.1282
  58   1.0000      -0.554195       -15.0804
  59   1.0000      -0.546332       -14.8665
  60   1.0000      -0.540003       -14.6942
  61   1.0000      -0.536319       -14.5940
  62   1.0000      -0.530551       -14.4370
  63   1.0000      -0.521706       -14.1963
  64   1.0000      -0.476624       -12.9696
  65   1.0000      -0.476464       -12.9652
  66   1.0000      -0.470243       -12.7959
  67   1.0000      -0.460926       -12.5424
  68   1.0000      -0.458747       -12.4831
  69   1.0000      -0.455054       -12.3827
  70   1.0000      -0.450938       -12.2707
  71   1.0000      -0.448958       -12.2168
  72   1.0000      -0.445941       -12.1347
  73   1.0000      -0.444960       -12.1080
  74   1.0000      -0.441561       -12.0155
  75   1.0000      -0.438880       -11.9425
  76   1.0000      -0.436337       -11.8733
  77   1.0000      -0.430128       -11.7044
  78   1.0000      -0.429132       -11.6773
  79   1.0000      -0.423199       -11.5158
  80   1.0000      -0.417816       -11.3693
  81   1.0000      -0.417405       -11.3582
  82   1.0000      -0.416686       -11.3386
  83   1.0000      -0.408863       -11.1257
  84   1.0000      -0.407096       -11.0776
  85   1.0000      -0.405602       -11.0370
  86   1.0000      -0.402112       -10.9420
  87   1.0000      -0.396792       -10.7973
  88   1.0000      -0.395940       -10.7741
  89   1.0000      -0.395508       -10.7623
  90   1.0000      -0.390310       -10.6209
  91   1.0000      -0.387602       -10.5472
  92   1.0000      -0.379116       -10.3163
  93   1.0000      -0.374366       -10.1870
  94   1.0000      -0.368969       -10.0402
  95   1.0000      -0.346373        -9.4253
  96   1.0000      -0.315636        -8.5889
  97   1.0000      -0.241060        -6.5596
  98   1.0000      -0.230124        -6.2620
  99   1.0000      -0.226426        -6.1614
 100   1.0000      -0.074589        -2.0297
 101   0.0000       0.029836         0.8119
 102   0.0000       0.046253         1.2586
 103   0.0000       0.059802         1.6273
 104   0.0000       0.077164         2.0997
 105   0.0000       0.101963         2.7746

                 SPIN DOWN ORBITALS
  NO   OCC          E(Eh)            E(eV)
   0   1.0000     -24.718193      -672.6162
   1   1.0000     -24.718166      -672.6155
   2   1.0000     -24.708346      -672.3483
   3   1.0000     -24.699060      -672.0956
   4   1.0000     -24.697688      -672.0582
   5   1.0000     -24.697149      -672.0436
   6   1.0000     -24.696494      -672.0258
   7   1.0000     -24.694594      -671.9741
   8   1.0000     -24.692353      -671.9131
   9   1.0000     -24.683578      -671.6743
  10   1.0000     -24.683144      -671.6625
  11   1.0000     -24.682770      -671.6523
  12   1.0000     -24.682443      -671.6434
  13   1.0000     -24.682043      -671.6325
  14   1.0000     -24.681039      -671.6052
  15   1.0000     -19.050781      -518.3981
  16   1.0000     -19.049792      -518.3712
  17   1.0000     -10.422454      -283.6094
  18   1.0000     -10.349917      -281.6355
  19   1.0000     -10.348823      -281.6058
  20   1.0000     -10.344698      -281.4936
  21   1.0000     -10.330998      -281.1207
  22   1.0000     -10.330708      -281.1129
  23   1.0000     -10.326267      -280.9920
  24   1.0000     -10.243287      -278.7340
  25   1.0000      -1.316253       -35.8171
  26   1.0000      -1.273645       -34.6577
  27   1.0000      -1.260107       -34.2893
  28   1.0000      -1.253728       -34.1157
  29   1.0000      -1.244976       -33.8775
  30   1.0000      -1.239899       -33.7394
  31   1.0000      -1.234266       -33.5861
  32   1.0000      -1.229195       -33.4481
  33   1.0000      -1.219765       -33.1915
  34   1.0000      -1.211803       -32.9748
  35   1.0000      -1.205941       -32.8153
  36   1.0000      -1.200408       -32.6648
  37   1.0000      -1.190695       -32.4005
  38   1.0000      -1.188138       -32.3309
  39   1.0000      -1.183121       -32.1944
  40   1.0000      -1.013170       -27.5698
  41   1.0000      -0.929663       -25.2974
  42   1.0000      -0.782155       -21.2835
  43   1.0000      -0.777366       -21.1532
  44   1.0000      -0.746913       -20.3245
  45   1.0000      -0.717250       -19.5174
  46   1.0000      -0.682154       -18.5623
  47   1.0000      -0.652775       -17.7629
  48   1.0000      -0.630643       -17.1607
  49   1.0000      -0.602843       -16.4042
  50   1.0000      -0.598401       -16.2833
  51   1.0000      -0.595830       -16.2134
  52   1.0000      -0.585764       -15.9394
  53   1.0000      -0.580049       -15.7839
  54   1.0000      -0.578390       -15.7388
  55   1.0000      -0.564929       -15.3725
  56   1.0000      -0.560170       -15.2430
  57   1.0000      -0.554066       -15.0769
  58   1.0000      -0.551007       -14.9937
  59   1.0000      -0.544694       -14.8219
  60   1.0000      -0.538911       -14.6645
  61   1.0000      -0.531773       -14.4703
  62   1.0000      -0.528515       -14.3816
  63   1.0000      -0.520373       -14.1601
  64   1.0000      -0.476113       -12.9557
  65   1.0000      -0.474211       -12.9039
  66   1.0000      -0.469462       -12.7747
  67   1.0000      -0.460368       -12.5272
  68   1.0000      -0.458160       -12.4672
  69   1.0000      -0.454749       -12.3743
  70   1.0000      -0.450502       -12.2588
  71   1.0000      -0.448141       -12.1945
  72   1.0000      -0.445007       -12.1093
  73   1.0000      -0.443983       -12.0814
  74   1.0000      -0.441026       -12.0009
  75   1.0000      -0.437823       -11.9138
  76   1.0000      -0.435527       -11.8513
  77   1.0000      -0.428933       -11.6719
  78   1.0000      -0.427995       -11.6463
  79   1.0000      -0.422637       -11.5005
  80   1.0000      -0.416841       -11.3428
  81   1.0000      -0.416457       -11.3324
  82   1.0000      -0.415797       -11.3144
  83   1.0000      -0.407889       -11.0992
  84   1.0000      -0.405896       -11.0450
  85   1.0000      -0.404945       -11.0191
  86   1.0000      -0.400041       -10.8857
  87   1.0000      -0.395836       -10.7713
  88   1.0000      -0.392804       -10.6887
  89   1.0000      -0.392124       -10.6702
  90   1.0000      -0.389406       -10.5963
  91   1.0000      -0.385086       -10.4787
  92   1.0000      -0.374168       -10.1816
  93   1.0000      -0.372858       -10.1460
  94   1.0000      -0.363588        -9.8937
  95   1.0000      -0.342373        -9.3164
  96   1.0000      -0.312840        -8.5128
  97   1.0000      -0.240371        -6.5408
  98   1.0000      -0.229268        -6.2387
  99   1.0000      -0.226212        -6.1556
 100   0.0000      -0.003117        -0.0848
 101   0.0000       0.038733         1.0540
 102   0.0000       0.052974         1.4415
 103   0.0000       0.066434         1.8078
 104   0.0000       0.085242         2.3196

MULLIKEN ATOMIC CHARGES AND SPIN POPULATIONS
--------------------------------------------
   0 C :    0.139098    0.005818
   1 O :   -0.491182    0.004504
   2 O :   -0.498747    0.004082
   3 C :    0.349321    0.019980
   4 C :    0.285739    0.055039
   5 C :    0.293330    0.132649
   6 C :    0.254075    0.244401
   7 C :    0.224241    0.262405
   8 C :    0.281858    0.150369
   9 C :    0.441334    0.079714
  10 F :   -0.225574    0.000294
  11 F :   -0.230378    0.000350
  12 F :   -0.210637    0.000947
  13 F :   -0.215053    0.000455
  14 F :   -0.220697    0.001438
  15 F :   -0.221957    0.000951
  16 F :   -0.235668    0.003235
  17 F :   -0.241220    0.003542
  18 F :   -0.245149    0.005294
  19 F :   -0.240225    0.004805
  20 F :   -0.218925    0.003271
  21 F :   -0.217985    0.003134
  22 F :   -0.180525   -0.000100
  23 F :   -0.194428    0.013543
  24 F :   -0.180647   -0.000120
Sum of atomic charges         :   -2.0000000

LOEWDIN ATOMIC CHARGES AND SPIN POPULATIONS
-------------------------------------------
   0 C :   -0.695641    0.007304
   1 O :   -0.067571    0.004568
   2 O :   -0.070230    0.003961
   3 C :   -0.438421    0.023460
   4 C :   -0.456480    0.056085
   5 C :   -0.466150    0.124193
   6 C :   -0.472261    0.210057
   7 C :   -0.470350    0.228835
   8 C :   -0.479804    0.154188
   9 C :   -0.652127    0.067156
  10 F :    0.145929    0.001282
  11 F :    0.141346    0.001044
  12 F :    0.173890    0.002763
  13 F :    0.173552    0.001834
  14 F :    0.154357    0.006644
  15 F :    0.156389    0.005810
  16 F :    0.130356    0.011999
  17 F :    0.121380    0.012638
  18 F :    0.113955    0.015125
  19 F :    0.122846    0.014164
  20 F :    0.148366    0.009436
  21 F :    0.150374    0.009000
  22 F :    0.193321    0.001918
  23 F :    0.149839    0.024669
  24 F :    0.193135    0.001867

  Mayer bond orders larger than 0.100000
B(  0-C ,  1-O ) :   1.8867 B(  0-C ,  2-O ) :   1.8773 B(  0-C ,  3-C ) :   0.8459
B(  3-C ,  4-C ) :   0.9056 B(  3-C , 10-F ) :   1.0422 B(  3-C , 11-F ) :   1.0260
B(  4-C ,  5-C ) :   0.8881 B(  4-C , 12-F ) :   1.0551 B(  4-C , 13-F ) :   1.0411
B(  5-C ,  6-C ) :   0.9054 B(  5-C , 14-F ) :   1.0250 B(  5-C , 15-F ) :   1.0255
B(  6-C ,  7-C ) :   0.9176 B(  6-C , 16-F ) :   0.9957 B(  6-C , 17-F ) :   0.9860
B(  7-C ,  8-C ) :   0.9241 B(  7-C , 18-F ) :   0.9818 B(  7-C , 19-F ) :   0.9879
B(  8-C ,  9-C ) :   0.9628 B(  8-C , 20-F ) :   1.0222 B(  8-C , 21-F ) :   1.0226
B(  9-C , 22-F ) :   1.1338 B(  9-C , 23-F ) :   1.0825 B(  9-C , 24-F ) :   1.1331

Dispersion correction           -0.042540877
FINAL SINGLE POINT ENERGY     -1953.234513879366

DIPOLE MOMENT
-------------

Method             : SCF
Type of density    : Electron Density
Multiplicity       :   2
Irrep              :   0
Energy             : -1953.1919730025522313 Eh
Relativity type    :
Basis              : AO
                                X                 Y                 Z
Electronic contribution:    -17.580831902      -1.624590152       1.346422281
Nuclear contribution   :     10.215868759       0.852609432      -0.763381734
                        -----------------------------------------
Total Dipole Moment    :     -7.364963143      -0.771980720       0.583040547
                        -----------------------------------------
Magnitude (a.u.)       :      7.428228094
Magnitude (Debye)      :     18.881055313

VIBRATIONAL FREQUENCIES
-----------------------

Scaling factor for frequencies =  1.000000000  (already applied!)

     0:       0.00 cm**-1
     1:       0.00 cm**-1
     2:       0.00 cm**-1
     3:       0.00 cm**-1
     4:       0.00 cm**-1
     5:       0.00 cm**-1
     6:      24.31 cm**-1
     7:      34.88 cm**-1
     8:      36.79 cm**-1
     9:      40.92 cm**-1
    10:      47.42 cm**-1
    11:      57.52 cm**-1
    12:      63.28 cm**-1
    13:      71.92 cm**-1
    14:      96.13 cm**-1
    15:     101.09 cm**-1
    16:     129.29 cm**-1
    17:     162.80 cm**-1
    18:     184.49 cm**-1
    19:     206.00 cm**-1
    20:     214.17 cm**-1
    21:     231.10 cm**-1
    22:     233.94 cm**-1
    23:     247.71 cm**-1
    24:     253.60 cm**-1
    25:     262.62 cm**-1
    26:     269.69 cm**-1
    27:     311.19 cm**-1
    28:     320.17 cm**-1
    29:     322.42 cm**-1
    30:     327.99 cm**-1
    31:     337.11 cm**-1
    32:     347.98 cm**-1
    33:     361.86 cm**-1
    34:     364.73 cm**-1
    35:     374.62 cm**-1
    36:     417.43 cm**-1
    37:     459.67 cm**-1
    38:     466.59 cm**-1
    39:     505.30 cm**-1
    40:     510.99 cm**-1
    41:     530.60 cm**-1
    42:     545.09 cm**-1
    43:     562.54 cm**-1
    44:     572.29 cm**-1
    45:     587.59 cm**-1
    46:     602.58 cm**-1
    47:     614.41 cm**-1
    48:     633.69 cm**-1
    49:     658.95 cm**-1
    50:     675.40 cm**-1
    51:     704.54 cm**-1
    52:     733.12 cm**-1
    53:     793.55 cm**-1
    54:     816.45 cm**-1
    55:     851.92 cm**-1
    56:     855.76 cm**-1
    57:     939.82 cm**-1
    58:     964.34 cm**-1
    59:     973.58 cm**-1
    60:     986.15 cm**-1
    61:    1001.01 cm**-1
    62:    1006.20 cm**-1
    63:    1031.21 cm**-1
    64:    1037.25 cm**-1
    65:    1071.53 cm**-1
    66:    1075.91 cm**-1
    67:    1087.15 cm**-1
    68:    1106.14 cm**-1
    69:    1130.99 cm**-1
    70:    1132.59 cm**-1
    71:    1154.08 cm**-1
    72:    1264.39 cm**-1
    73:    1361.45 cm**-1
    74:    1709.59 cm**-1

IR SPECTRUM
-----------

 Mode   freq       eps      Int      T**2         TX        TY        TZ
       cm**-1   L/(mol*cm) km/mol    a.u.
----------------------------------------------------------------------------
  6:     24.31   0.000164    0.83  0.002103  ( 0.044204  0.004029  0.011536)
  7:     34.88   0.000396    2.00  0.003547  ( 0.004789  0.006422 -0.059013)
  8:     36.79   0.000701    3.54  0.005943  ( 0.035032  0.063400  0.026389)
  9:     40.92   0.000417    2.11  0.003181  ( 0.049809 -0.015314  0.021588)
 10:     47.42   0.000170    0.86  0.001116  ( 0.031778  0.010239  0.001160)
 11:     57.52   0.000478    2.41  0.002591  ( 0.038166 -0.006604 -0.033023)
 12:     63.28   0.000089    0.45  0.000439  ( 0.013792 -0.013743  0.007763)
 13:     71.92   0.000299    1.51  0.001295  ( 0.035210 -0.007296 -0.001542)
 14:     96.13   0.002370   11.98  0.007694  ( 0.083527 -0.023815  0.012241)
 15:    101.09   0.000333    1.68  0.001028  (-0.023844 -0.018480  0.010881)
 16:    129.29   0.034355  173.62  0.082920  (-0.285873  0.033440 -0.008834)
 17:    162.80   0.014399   72.77  0.027601  ( 0.165058  0.013031 -0.013662)
 18:    184.49   0.000490    2.48  0.000829  ( 0.025058 -0.005112  0.013234)
 19:    206.00   0.001152    5.82  0.001745  ( 0.007634  0.004463  0.040821)
 20:    214.17   0.000076    0.38  0.000110  (-0.008665 -0.005577 -0.002046)
 21:    231.10   0.000958    4.84  0.001294  ( 0.028434  0.003861  0.021685)
 22:    233.94   0.020924  105.74  0.027912  ( 0.167061  0.001363 -0.000763)
 23:    247.71   0.000011    0.06  0.000014  (-0.001040  0.002470  0.002577)
 24:    253.60   0.000091    0.46  0.000112  (-0.008563  0.000337  0.006198)
 25:    262.62   0.000039    0.20  0.000047  (-0.005364 -0.000444 -0.004189)
 26:    269.69   0.000307    1.55  0.000356  ( 0.014441  0.002419 -0.011887)
 27:    311.19   0.001145    5.79  0.001149  ( 0.033630  0.004045 -0.001146)
 28:    320.17   0.008665   43.79  0.008445  (-0.091873 -0.002054  0.000665)
 29:    322.42   0.006910   34.92  0.006688  ( 0.081780 -0.000186  0.000603)
 30:    327.99   0.000046    0.23  0.000043  ( 0.004878 -0.004385 -0.000544)
 31:    337.11   0.006613   33.42  0.006122  ( 0.077651 -0.009401  0.002022)
 32:    347.98   0.003828   19.34  0.003433  ( 0.058548 -0.000577 -0.002144)
 33:    361.86   0.000062    0.31  0.000053  ( 0.006577  0.000091 -0.003186)
 34:    364.73   0.000344    1.74  0.000294  (-0.011859  0.003788 -0.011798)
 35:    374.62   0.000453    2.29  0.000377  ( 0.017859 -0.006818  0.003403)
 36:    417.43   0.000020    0.10  0.000015  ( 0.003242  0.000229  0.002123)
 37:    459.67   0.000325    1.64  0.000220  (-0.009571 -0.009862 -0.005616)
 38:    466.59   0.000330    1.67  0.000221  (-0.003268 -0.003097  0.014158)
 39:    505.30   0.004308   21.77  0.002661  ( 0.050985 -0.005485  0.005573)
 40:    510.99   0.000264    1.34  0.000161  (-0.011383 -0.000261  0.005629)
 41:    530.60   0.002963   14.98  0.001743  (-0.028438 -0.026889  0.014528)
 42:    545.09   0.000967    4.89  0.000554  ( 0.021511  0.009354  0.001819)
 43:    562.54   0.006053   30.59  0.003358  (-0.054557  0.018407 -0.006546)
 44:    572.29   0.001960    9.90  0.001069  (-0.022277 -0.019863  0.013332)
 45:    587.59   0.000617    3.12  0.000328  ( 0.016600  0.002608  0.006733)
 46:    602.58   0.002342   11.83  0.001213  ( 0.032530  0.010006  0.007378)
 47:    614.41   0.007480   37.80  0.003799  ( 0.060672 -0.009753  0.004759)
 48:    633.69   0.088319  446.33  0.043493  ( 0.208483  0.005237 -0.000403)
 49:    658.95   0.013270   67.06  0.006284  ( 0.078480 -0.010941  0.002361)
 50:    675.40   0.030804  155.67  0.014233  (-0.119104  0.000709  0.006813)
 51:    704.54   0.013702   69.25  0.006069  (-0.077901 -0.000634 -0.000579)
 52:    733.12   0.029816  150.68  0.012692  (-0.109294  0.027224  0.002274)
 53:    793.55   0.030356  153.41  0.011938  (-0.090362 -0.048854  0.037226)
 54:    816.45   0.055320  279.56  0.021144  (-0.144413  0.017004 -0.000528)
 55:    851.92   0.001713    8.66  0.000627  (-0.013319  0.006254 -0.020270)
 56:    855.76   0.033306  168.32  0.012146  (-0.109897  0.007945  0.002267)
 57:    939.82   0.088422  446.85  0.029360  ( 0.143969  0.052392 -0.076734)
 58:    964.34   0.027362  138.28  0.008854  ( 0.085748  0.038569 -0.003756)
 59:    973.58   0.066172  334.40  0.021210  ( 0.131553  0.059652  0.018594)
 60:    986.15   0.269498  1361.93  0.085282  (-0.258895  0.132830 -0.024728)
 61:   1001.01   0.053432  270.02  0.016657  (-0.003430 -0.021474 -0.127218)
 62:   1006.20   0.013724   69.36  0.004257  (-0.008867 -0.008087  0.064129)
 63:   1031.21   0.097875  494.62  0.029619  ( 0.103085 -0.085009 -0.108470)
 64:   1037.25   0.171434  866.36  0.051577  (-0.163112  0.130224 -0.089516)
 65:   1071.53   0.124643  629.90  0.036300  ( 0.053650  0.100249  0.152879)
 66:   1075.91   0.038090  192.49  0.011048  (-0.069146  0.042127  0.067023)
 67:   1087.15   0.073752  372.71  0.021170  ( 0.009985  0.065121 -0.129730)
 68:   1106.14   0.043753  221.11  0.012344  ( 0.023183  0.108631  0.002329)
 69:   1130.99   0.102836  519.69  0.028375  (-0.026620  0.000258 -0.166331)
 70:   1132.59   0.172659  872.55  0.047573  ( 0.213977  0.021363 -0.036475)
 71:   1154.08   0.157228  794.57  0.042515  (-0.201475 -0.038923 -0.020186)
 72:   1264.39   0.088682  448.16  0.021888  ( 0.141181  0.041605 -0.014979)
 73:   1361.45   0.115572  584.05  0.026491  (-0.159332 -0.025031  0.021851)
 74:   1709.59   0.161780  817.57  0.029531  (-0.008544  0.108098  0.133314)

--------------------------
THERMOCHEMISTRY AT 298.15K
--------------------------

Temperature         ...   298.15 K
Pressure            ...     1.00 atm
Total Mass          ...   413.06 AMU
Quasi RRHO          ...     True
Cut-Off Frequency   ...     1.00 cm^-1

Throughout the following assumptions are being made:
  (1) The electronic state is orbitally nondegenerate
      but the spin degeneracy is treated
  (2) There are no thermally accessible electronically excited states
  (3) Hindered rotations indicated by low frequency modes are not
      treated as such but are treated as vibrations and this may
      cause some error
  (4) All equations used are the standard statistical mechanics
      equations for an ideal gas
  (5) All vibrations are strictly harmonic

freq.      24.31  E(vib)   ...       0.56
freq.      34.88  E(vib)   ...       0.54
freq.      36.79  E(vib)   ...       0.54
freq.      40.92  E(vib)   ...       0.54
freq.      47.42  E(vib)   ...       0.53
freq.      57.52  E(vib)   ...       0.51
freq.      63.28  E(vib)   ...       0.51
freq.      71.92  E(vib)   ...       0.50
freq.      96.13  E(vib)   ...       0.47
freq.     101.09  E(vib)   ...       0.46
freq.     129.29  E(vib)   ...       0.43
freq.     162.80  E(vib)   ...       0.39
freq.     184.49  E(vib)   ...       0.37
freq.     206.00  E(vib)   ...       0.35
freq.     214.17  E(vib)   ...       0.34
freq.     231.10  E(vib)   ...       0.32
freq.     233.94  E(vib)   ...       0.32
freq.     247.71  E(vib)   ...       0.31
freq.     253.60  E(vib)   ...       0.30
freq.     262.62  E(vib)   ...       0.29
freq.     269.69  E(vib)   ...       0.29
freq.     311.19  E(vib)   ...       0.25
freq.     320.17  E(vib)   ...       0.25
freq.     322.42  E(vib)   ...       0.25
freq.     327.99  E(vib)   ...       0.24
freq.     337.11  E(vib)   ...       0.24
freq.     347.98  E(vib)   ...       0.23
freq.     361.86  E(vib)   ...       0.22
freq.     364.73  E(vib)   ...       0.22
freq.     374.62  E(vib)   ...       0.21
freq.     417.43  E(vib)   ...       0.18
freq.     459.67  E(vib)   ...       0.16
freq.     466.59  E(vib)   ...       0.16
freq.     505.30  E(vib)   ...       0.14
freq.     510.99  E(vib)   ...       0.14
freq.     530.60  E(vib)   ...       0.13
freq.     545.09  E(vib)   ...       0.12
freq.     562.54  E(vib)   ...       0.11
freq.     572.29  E(vib)   ...       0.11
freq.     587.59  E(vib)   ...       0.10
freq.     602.58  E(vib)   ...       0.10
freq.     614.41  E(vib)   ...       0.10
freq.     633.69  E(vib)   ...       0.09
freq.     658.95  E(vib)   ...       0.08
freq.     675.40  E(vib)   ...       0.08
freq.     704.54  E(vib)   ...       0.07
freq.     733.12  E(vib)   ...       0.06
freq.     793.55  E(vib)   ...       0.05
freq.     816.45  E(vib)   ...       0.05
freq.     851.92  E(vib)   ...       0.04
freq.     855.76  E(vib)   ...       0.04
freq.     939.82  E(vib)   ...       0.03
freq.     964.34  E(vib)   ...       0.03
freq.     973.58  E(vib)   ...       0.03
freq.     986.15  E(vib)   ...       0.02
freq.    1001.01  E(vib)   ...       0.02
freq.    1006.20  E(vib)   ...       0.02
freq.    1031.21  E(vib)   ...       0.02
freq.    1037.25  E(vib)   ...       0.02
freq.    1071.53  E(vib)   ...       0.02
freq.    1075.91  E(vib)   ...       0.02
freq.    1087.15  E(vib)   ...       0.02
freq.    1106.14  E(vib)   ...       0.02
freq.    1130.99  E(vib)   ...       0.01
freq.    1132.59  E(vib)   ...       0.01
freq.    1154.08  E(vib)   ...       0.01
freq.    1264.39  E(vib)   ...       0.01
freq.    1361.45  E(vib)   ...       0.01
freq.    1709.59  E(vib)   ...       0.00

------------
INNER ENERGY
------------

The inner energy is: U= E(el) + E(ZPE) + E(vib) + E(rot) + E(trans)
    E(el)   - is the total energy from the electronic structure calculation
              = E(kin-el) + E(nuc-el) + E(el-el) + E(nuc-nuc)
    E(ZPE)  - the the zero temperature vibrational energy from the frequency calculation
    E(vib)  - the the finite temperature correction to E(ZPE) due to population
              of excited vibrational states
    E(rot)  - is the rotational thermal energy
    E(trans)- is the translational thermal energy

Summary of contributions to the inner energy U:
Electronic energy                ...  -1953.23451388 Eh
Zero point energy                ...      0.08923481 Eh      56.00 kcal/mol
Thermal vibrational correction   ...      0.02130810 Eh      13.37 kcal/mol
Thermal rotational correction    ...      0.00141627 Eh       0.89 kcal/mol
Thermal translational correction ...      0.00141627 Eh       0.89 kcal/mol
-----------------------------------------------------------------------
Total thermal energy                  -1953.12113842 Eh

Summary of corrections to the electronic energy:
(perhaps to be used in another calculation)
Total thermal correction                  0.02414065 Eh      15.15 kcal/mol
Non-thermal (ZPE) correction              0.08923481 Eh      56.00 kcal/mol
-----------------------------------------------------------------------
Total correction                          0.11337546 Eh      71.14 kcal/mol

--------
ENTHALPY
--------

The enthalpy is H = U + kB*T
                kB is Boltzmann's constant
Total thermal energy              ...  -1953.12113842 Eh
Thermal Enthalpy correction       ...      0.00094421 Eh       0.59 kcal/mol
-----------------------------------------------------------------------
Total Enthalpy                    ...  -1953.12019421 Eh

Note: Only C1 symmetry has been detected, increase convergence thresholds
      if your molecule has a higher symmetry. Symmetry factor of 1.0 is
      used for the rotational entropy correction.

Note: Rotational entropy computed according to Herzberg
Infrared and Raman Spectra, Chapter V,1, Van Nostrand Reinhold, 1945
Point Group:  C1, Symmetry Number:   1
Rotational constants in cm-1:     0.021730     0.003375     0.003347

Vibrational entropy computed according to the QRRHO of S. Grimme
Chem.Eur.J. 2012 18 9955 using a reference frequency of 100.0 cm-1

-------
ENTROPY
-------

The entropy contributions are T*S = T*(S(el)+S(vib)+S(rot)+S(trans))
     S(el)   - electronic entropy
     S(vib)  - vibrational entropy
     S(rot)  - rotational entropy
     S(trans)- translational entropy
The entropies will be listed as multiplied by the temperature to get
units of energy

Electronic entropy                ...      0.00065446 Eh      0.41 kcal/mol
Vibrational entropy               ...      0.03809646 Eh     23.91 kcal/mol

                             ****ORCA TERMINATED NORMALLY****
TOTAL RUN TIME: 0 days 0 hours 22 minutes 46 seconds 59 msec
