                         Program Version 6.0.1  -  RELEASE   -
|  1> !r2scanh def2-TZVP freq d3 TightSCF SlowConv defgrid2
|  2>
|  3> %pal
|  4> nprocs 20
|  5> end
|  6>
|  7> %scf
|  8> MaxIter 1500
|  9> end
| 10>
| 11> %maxcore 8000
| 12>
| 13> !CPCM
| 14> %cpcm smd true
| 15> SMDsolvent "ACETONITRILE"
| 16> end
| 17>
| 18> * xyz 0 2
| 19> 6        4.632147000      0.128043000     -0.490685000
| 20> 8        5.028526000     -0.786388000     -1.353611000
| 21> 8        5.055664000      1.238209000     -0.359985000
| 22> 6        3.469630000     -0.392824000      0.385001000
| 23> 6        2.106226000      0.081531000     -0.189422000
| 24> 6        0.874741000     -0.646800000      0.424835000
| 25> 6       -0.457325000      0.128207000      0.205265000
| 26> 6       -1.740313000     -0.738755000      0.373195000
| 27> 6       -2.979686000      0.088170000      0.476807000
| 28> 6       -4.018403000      0.236286000     -0.588249000
| 29> 9        3.465102000     -1.736094000      0.450688000
| 30> 9        3.617517000      0.099985000      1.623110000
| 31> 9        1.995441000      1.401501000      0.026771000
| 32> 9        2.113955000     -0.139174000     -1.515882000
| 33> 9        0.774153000     -1.861148000     -0.136078000
| 34> 9        1.067179000     -0.795484000      1.744045000
| 35> 9       -0.518152000      1.131398000      1.095503000
| 36> 9       -0.473987000      0.646609000     -1.033751000
| 37> 9       -1.595384000     -1.478622000      1.494075000
| 38> 9       -1.846058000     -1.560413000     -0.687578000
| 39> 9       -3.281261000      0.552886000      1.667097000
| 40> 9       -4.817771000     -0.838739000     -0.675349000
| 41> 9       -4.789686000      1.288451000     -0.324714000
| 42> 9       -3.451367000      0.405356000     -1.784356000
| 43> 1        5.742435000     -0.412636000     -1.903736000
| 44> *
| 45>
| 46>                          ****END OF INPUT****

CARTESIAN COORDINATES (ANGSTROEM)
---------------------------------
  C      4.632147    0.128043   -0.490685
  O      5.028526   -0.786388   -1.353611
  O      5.055664    1.238209   -0.359985
  C      3.469630   -0.392824    0.385001
  C      2.106226    0.081531   -0.189422
  C      0.874741   -0.646800    0.424835
  C     -0.457325    0.128207    0.205265
  C     -1.740313   -0.738755    0.373195
  C     -2.979686    0.088170    0.476807
  C     -4.018403    0.236286   -0.588249
  F      3.465102   -1.736094    0.450688
  F      3.617517    0.099985    1.623110
  F      1.995441    1.401501    0.026771
  F      2.113955   -0.139174   -1.515882
  F      0.774153   -1.861148   -0.136078
  F      1.067179   -0.795484    1.744045
  F     -0.518152    1.131398    1.095503
  F     -0.473987    0.646609   -1.033751
  F     -1.595384   -1.478622    1.494075
  F     -1.846058   -1.560413   -0.687578
  F     -3.281261    0.552886    1.667097
  F     -4.817771   -0.838739   -0.675349
  F     -4.789686    1.288451   -0.324714
  F     -3.451367    0.405356   -1.784356
  H      5.742435   -0.412636   -1.903736

 Total Charge           Charge          ....    0
 Multiplicity           Mult            ....    2
 Number of Electrons    NEL             ....  191
 Basis Dimension        Dim             ....  750

ORBITAL ENERGIES
----------------
                 SPIN UP ORBITALS
  NO   OCC          E(Eh)            E(eV)
   0   1.0000     -24.745520      -673.3598
   1   1.0000     -24.732900      -673.0164
   2   1.0000     -24.732196      -672.9973
   3   1.0000     -24.732159      -672.9963
   4   1.0000     -24.732010      -672.9922
   5   1.0000     -24.731873      -672.9885
   6   1.0000     -24.731755      -672.9853
   7   1.0000     -24.728993      -672.9101
   8   1.0000     -24.727114      -672.8590
   9   1.0000     -24.726037      -672.8297
  10   1.0000     -24.725837      -672.8242
  11   1.0000     -24.723472      -672.7599
  12   1.0000     -24.721710      -672.7119
  13   1.0000     -24.721097      -672.6953
  14   1.0000     -19.197142      -522.3808
  15   1.0000     -19.141033      -520.8540
  16   1.0000     -10.438933      -284.0578
  17   1.0000     -10.387882      -282.6686
  18   1.0000     -10.387305      -282.6529
  19   1.0000     -10.384703      -282.5821
  20   1.0000     -10.384532      -282.5775
  21   1.0000     -10.375980      -282.3448
  22   1.0000     -10.326435      -280.9966
  23   1.0000     -10.310346      -280.5588
  24   1.0000      -1.350352       -36.7449
  25   1.0000      -1.342068       -36.5195
  26   1.0000      -1.327464       -36.1221
  27   1.0000      -1.315998       -35.8101
  28   1.0000      -1.313408       -35.7397
  29   1.0000      -1.309084       -35.6220
  30   1.0000      -1.302291       -35.4371
  31   1.0000      -1.272016       -34.6133
  32   1.0000      -1.264409       -34.4063
  33   1.0000      -1.261059       -34.3152
  34   1.0000      -1.257791       -34.2262
  35   1.0000      -1.255408       -34.1614
  36   1.0000      -1.254995       -34.1501
  37   1.0000      -1.251169       -34.0460
  38   1.0000      -1.152883       -31.3715
  39   1.0000      -1.065803       -29.0020
  40   1.0000      -0.856277       -23.3005
  41   1.0000      -0.839682       -22.8489
  42   1.0000      -0.810018       -22.0417
  43   1.0000      -0.772948       -21.0330
  44   1.0000      -0.733028       -19.9467
  45   1.0000      -0.692194       -18.8355
  46   1.0000      -0.671621       -18.2757
  47   1.0000      -0.661617       -18.0035
  48   1.0000      -0.638192       -17.3661
  49   1.0000      -0.634488       -17.2653
  50   1.0000      -0.628795       -17.1104
  51   1.0000      -0.622037       -16.9265
  52   1.0000      -0.617769       -16.8104
  53   1.0000      -0.614302       -16.7160
  54   1.0000      -0.605742       -16.4831
  55   1.0000      -0.603348       -16.4179
  56   1.0000      -0.599851       -16.3228
  57   1.0000      -0.588094       -16.0028
  58   1.0000      -0.584024       -15.8921
  59   1.0000      -0.577143       -15.7048
  60   1.0000      -0.571517       -15.5518
  61   1.0000      -0.563219       -15.3260
  62   1.0000      -0.525685       -14.3046
  63   1.0000      -0.512596       -13.9484
  64   1.0000      -0.500197       -13.6110
  65   1.0000      -0.499806       -13.6004
  66   1.0000      -0.492742       -13.4082
  67   1.0000      -0.490521       -13.3478
  68   1.0000      -0.484904       -13.1949
  69   1.0000      -0.482155       -13.1201
  70   1.0000      -0.478272       -13.0144
  71   1.0000      -0.476865       -12.9762
  72   1.0000      -0.474360       -12.9080
  73   1.0000      -0.471838       -12.8394
  74   1.0000      -0.465558       -12.6685
  75   1.0000      -0.462849       -12.5947
  76   1.0000      -0.459420       -12.5015
  77   1.0000      -0.455272       -12.3886
  78   1.0000      -0.452538       -12.3142
  79   1.0000      -0.447847       -12.1865
  80   1.0000      -0.442614       -12.0441
  81   1.0000      -0.441566       -12.0156
  82   1.0000      -0.439617       -11.9626
  83   1.0000      -0.435962       -11.8631
  84   1.0000      -0.432272       -11.7627
  85   1.0000      -0.431793       -11.7497
  86   1.0000      -0.428709       -11.6658
  87   1.0000      -0.423577       -11.5261
  88   1.0000      -0.421321       -11.4647
  89   1.0000      -0.415629       -11.3098
  90   1.0000      -0.402437       -10.9509
  91   1.0000      -0.377292       -10.2666
  92   1.0000      -0.351404        -9.5622
  93   1.0000      -0.341803        -9.3009
  94   1.0000      -0.303790        -8.2666
  95   1.0000      -0.269132        -7.3234
  96   0.0000      -0.062038        -1.6881
  97   0.0000      -0.005419        -0.1475
  98   0.0000       0.006201         0.1687
  99   0.0000       0.028827         0.7844
 100   0.0000       0.051657         1.4057

                 SPIN DOWN ORBITALS
  NO   OCC          E(Eh)            E(eV)
   0   1.0000     -24.740201      -673.2151
   1   1.0000     -24.732878      -673.0158
   2   1.0000     -24.732199      -672.9974
   3   1.0000     -24.732164      -672.9964
   4   1.0000     -24.731999      -672.9919
   5   1.0000     -24.731830      -672.9873
   6   1.0000     -24.731751      -672.9852
   7   1.0000     -24.728617      -672.8999
   8   1.0000     -24.726152      -672.8328
   9   1.0000     -24.725746      -672.8218
  10   1.0000     -24.725248      -672.8082
  11   1.0000     -24.723473      -672.7599
  12   1.0000     -24.721708      -672.7119
  13   1.0000     -24.719431      -672.6499
  14   1.0000     -19.197140      -522.3807
  15   1.0000     -19.141028      -520.8538
  16   1.0000     -10.439803      -284.0815
  17   1.0000     -10.388391      -282.6825
  18   1.0000     -10.387774      -282.6657
  19   1.0000     -10.384485      -282.5762
  20   1.0000     -10.384027      -282.5637
  21   1.0000     -10.375963      -282.3443
  22   1.0000     -10.326431      -280.9965
  23   1.0000     -10.293280      -280.0944
  24   1.0000      -1.348770       -36.7019
  25   1.0000      -1.341863       -36.5140
  26   1.0000      -1.326909       -36.1070
  27   1.0000      -1.315658       -35.8009
  28   1.0000      -1.312223       -35.7074
  29   1.0000      -1.308952       -35.6184
  30   1.0000      -1.294117       -35.2147
  31   1.0000      -1.271848       -34.6087
  32   1.0000      -1.264062       -34.3969
  33   1.0000      -1.260159       -34.2907
  34   1.0000      -1.257589       -34.2207
  35   1.0000      -1.253956       -34.1219
  36   1.0000      -1.252840       -34.0915
  37   1.0000      -1.251165       -34.0459
  38   1.0000      -1.152877       -31.3714
  39   1.0000      -1.065796       -29.0018
  40   1.0000      -0.848074       -23.0773
  41   1.0000      -0.830752       -22.6059
  42   1.0000      -0.802933       -21.8489
  43   1.0000      -0.769520       -20.9397
  44   1.0000      -0.731363       -19.9014
  45   1.0000      -0.688566       -18.7368
  46   1.0000      -0.667103       -18.1528
  47   1.0000      -0.661300       -17.9949
  48   1.0000      -0.636565       -17.3218
  49   1.0000      -0.632751       -17.2180
  50   1.0000      -0.627317       -17.0702
  51   1.0000      -0.620651       -16.8888
  52   1.0000      -0.616723       -16.7819
  53   1.0000      -0.608761       -16.5652
  54   1.0000      -0.605269       -16.4702
  55   1.0000      -0.601978       -16.3807
  56   1.0000      -0.599171       -16.3043
  57   1.0000      -0.587344       -15.9824
  58   1.0000      -0.582884       -15.8611
  59   1.0000      -0.575823       -15.6689
  60   1.0000      -0.570545       -15.5253
  61   1.0000      -0.562899       -15.3173
  62   1.0000      -0.512589       -13.9482
  63   1.0000      -0.500204       -13.6112
  64   1.0000      -0.500074       -13.6077
  65   1.0000      -0.494265       -13.4496
  66   1.0000      -0.491003       -13.3609
  67   1.0000      -0.489240       -13.3129
  68   1.0000      -0.482790       -13.1374
  69   1.0000      -0.480263       -13.0686
  70   1.0000      -0.477560       -12.9951
  71   1.0000      -0.475986       -12.9522
  72   1.0000      -0.471799       -12.8383
  73   1.0000      -0.470926       -12.8145
  74   1.0000      -0.464185       -12.6311
  75   1.0000      -0.462402       -12.5826
  76   1.0000      -0.458438       -12.4747
  77   1.0000      -0.454003       -12.3540
  78   1.0000      -0.449315       -12.2265
  79   1.0000      -0.446975       -12.1628
  80   1.0000      -0.441462       -12.0128
  81   1.0000      -0.440106       -11.9759
  82   1.0000      -0.438591       -11.9347
  83   1.0000      -0.435534       -11.8515
  84   1.0000      -0.431573       -11.7437
  85   1.0000      -0.431230       -11.7344
  86   1.0000      -0.428452       -11.6588
  87   1.0000      -0.422784       -11.5045
  88   1.0000      -0.420055       -11.4303
  89   1.0000      -0.413776       -11.2594
  90   1.0000      -0.399342       -10.8667
  91   1.0000      -0.374840       -10.1999
  92   1.0000      -0.351337        -9.5604
  93   1.0000      -0.339583        -9.2405
  94   1.0000      -0.303484        -8.2582
  95   0.0000      -0.125043        -3.4026
  96   0.0000      -0.061120        -1.6632
  97   0.0000      -0.003583        -0.0975
  98   0.0000       0.011987         0.3262
  99   0.0000       0.031472         0.8564

MULLIKEN ATOMIC CHARGES AND SPIN POPULATIONS
--------------------------------------------
   0 C :    0.281688    0.000202
   1 O :   -0.365004    0.000016
   2 O :   -0.326815    0.000173
   3 C :    0.412566    0.000462
   4 C :    0.287935    0.002058
   5 C :    0.317719    0.004901
   6 C :    0.306267    0.030354
   7 C :    0.388533   -0.019951
   8 C :    0.139110    0.844927
   9 C :    0.489899   -0.022835
  10 F :   -0.173695    0.000001
  11 F :   -0.170174    0.000048
  12 F :   -0.166076    0.000030
  13 F :   -0.168761    0.000090
  14 F :   -0.164415   -0.000105
  15 F :   -0.163953    0.000219
  16 F :   -0.167961    0.000483
  17 F :   -0.169683    0.000262
  18 F :   -0.169822    0.016750
  19 F :   -0.168726    0.005981
  20 F :   -0.142088    0.094178
  21 F :   -0.169160    0.028102
  22 F :   -0.161995    0.004702
  23 F :   -0.164880    0.008925
  24 H :    0.389489    0.000028
Sum of atomic charges         :    0.0000000

LOEWDIN ATOMIC CHARGES AND SPIN POPULATIONS
-------------------------------------------
   0 C :   -0.496787    0.000180
   1 O :    0.161394    0.000028
   2 O :    0.134110    0.000142
   3 C :   -0.464588    0.000610
   4 C :   -0.467690    0.001765
   5 C :   -0.471014    0.004887
   6 C :   -0.466932    0.022948
   7 C :   -0.492277    0.060204
   8 C :   -0.171214    0.669593
   9 C :   -0.683012    0.055073
  10 F :    0.217477   -0.000013
  11 F :    0.222674    0.000051
  12 F :    0.232870   -0.000051
  13 F :    0.228247    0.000101
  14 F :    0.231693   -0.000085
  15 F :    0.232008    0.000281
  16 F :    0.231394    0.001285
  17 F :    0.230585    0.000838
  18 F :    0.217885    0.016623
  19 F :    0.225448    0.006587
  20 F :    0.268434    0.110793
  21 F :    0.201960    0.030893
  22 F :    0.224134    0.005864
  23 F :    0.217836    0.011391
  24 H :    0.235364    0.000013

  Mayer bond orders larger than 0.100000
B(  0-C ,  1-O ) :   1.2959 B(  0-C ,  2-O ) :   2.0414 B(  0-C ,  3-C ) :   0.8820
B(  1-O , 24-H ) :   0.8168 B(  3-C ,  4-C ) :   0.9487 B(  3-C , 10-F ) :   1.0822
B(  3-C , 11-F ) :   1.0997 B(  4-C ,  5-C ) :   0.9269 B(  4-C , 12-F ) :   1.0829
B(  4-C , 13-F ) :   1.0755 B(  5-C ,  6-C ) :   0.9268 B(  5-C , 14-F ) :   1.0825
B(  5-C , 15-F ) :   1.0840 B(  6-C ,  7-C ) :   0.9365 B(  6-C , 16-F ) :   1.0774
B(  6-C , 17-F ) :   1.0763 B(  7-C ,  8-C ) :   0.9842 B(  7-C , 18-F ) :   1.0678
B(  7-C , 19-F ) :   1.0845 B(  8-C ,  9-C ) :   1.0451 B(  8-C , 20-F ) :   1.1227
B(  9-C , 21-F ) :   1.1188 B(  9-C , 22-F ) :   1.1284 B(  9-C , 23-F ) :   1.1198

Dispersion correction           -0.008292897
FINAL SINGLE POINT ENERGY     -1853.567167895333

DIPOLE MOMENT
-------------

Method             : SCF
Type of density    : Electron Density
Multiplicity       :   2
Irrep              :   0
Energy             : -1853.5588749983307935 Eh
Relativity type    :
Basis              : AO
                                X                 Y                 Z
Electronic contribution:    -13.380079786      -0.775232390       2.506704000
Nuclear contribution   :     14.006829084       0.426421026      -3.163801931
                        -----------------------------------------
Total Dipole Moment    :      0.626749297      -0.348811364      -0.657097931
                        -----------------------------------------
Magnitude (a.u.)       :      0.972759857
Magnitude (Debye)      :      2.472559060

VIBRATIONAL FREQUENCIES
-----------------------

Scaling factor for frequencies =  1.000000000  (already applied!)

     0:       0.00 cm**-1
     1:       0.00 cm**-1
     2:       0.00 cm**-1
     3:       0.00 cm**-1
     4:       0.00 cm**-1
     5:       0.00 cm**-1
     6:      16.85 cm**-1
     7:      24.97 cm**-1
     8:      29.90 cm**-1
     9:      35.40 cm**-1
    10:      41.76 cm**-1
    11:      55.04 cm**-1
    12:      60.22 cm**-1
    13:      65.19 cm**-1
    14:      92.44 cm**-1
    15:     126.91 cm**-1
    16:     147.08 cm**-1
    17:     166.38 cm**-1
    18:     187.72 cm**-1
    19:     197.75 cm**-1
    20:     209.92 cm**-1
    21:     226.38 cm**-1
    22:     245.16 cm**-1
    23:     247.75 cm**-1
    24:     262.96 cm**-1
    25:     269.59 cm**-1
    26:     305.99 cm**-1
    27:     312.68 cm**-1
    28:     325.78 cm**-1
    29:     351.62 cm**-1
    30:     356.48 cm**-1
    31:     367.61 cm**-1
    32:     377.50 cm**-1
    33:     379.86 cm**-1
    34:     410.42 cm**-1
    35:     436.28 cm**-1
    36:     474.04 cm**-1
    37:     509.69 cm**-1
    38:     520.27 cm**-1
    39:     553.14 cm**-1
    40:     560.70 cm**-1
    41:     571.60 cm**-1
    42:     586.67 cm**-1
    43:     599.31 cm**-1
    44:     615.28 cm**-1
    45:     636.79 cm**-1
    46:     647.36 cm**-1
    47:     679.65 cm**-1
    48:     707.18 cm**-1
    49:     725.67 cm**-1
    50:     758.99 cm**-1
    51:     784.39 cm**-1
    52:     889.63 cm**-1
    53:    1015.45 cm**-1
    54:    1080.93 cm**-1
    55:    1101.83 cm**-1
    56:    1143.80 cm**-1
    57:    1145.37 cm**-1
    58:    1152.39 cm**-1
    59:    1162.08 cm**-1
    60:    1168.75 cm**-1
    61:    1170.29 cm**-1
    62:    1177.50 cm**-1
    63:    1184.56 cm**-1
    64:    1187.56 cm**-1
    65:    1208.39 cm**-1
    66:    1234.32 cm**-1
    67:    1237.93 cm**-1
    68:    1292.13 cm**-1
    69:    1321.54 cm**-1
    70:    1354.85 cm**-1
    71:    1420.71 cm**-1
    72:    1439.97 cm**-1
    73:    1844.85 cm**-1
    74:    3649.06 cm**-1

IR SPECTRUM
-----------

 Mode   freq       eps      Int      T**2         TX        TY        TZ
       cm**-1   L/(mol*cm) km/mol    a.u.
----------------------------------------------------------------------------
  6:     16.85   0.000050    0.25  0.000925  (-0.021340 -0.021164  0.004674)
  7:     24.97   0.000387    1.96  0.004839  (-0.042594  0.032732 -0.044192)
  8:     29.90   0.000198    1.00  0.002067  ( 0.008812 -0.035959  0.026386)
  9:     35.40   0.000293    1.48  0.002587  ( 0.039968 -0.003610  0.031246)
 10:     41.76   0.000073    0.37  0.000547  (-0.005813  0.009726  0.020471)
 11:     55.04   0.000129    0.65  0.000734  ( 0.022512  0.014438  0.004345)
 12:     60.22   0.000032    0.16  0.000168  ( 0.005701 -0.002462  0.011387)
 13:     65.19   0.000179    0.90  0.000856  ( 0.024749  0.015435  0.002326)
 14:     92.44   0.000027    0.13  0.000090  (-0.002617  0.000810 -0.009079)
 15:    126.91   0.000204    1.03  0.000502  (-0.011983  0.013313  0.013459)
 16:    147.08   0.000350    1.77  0.000743  ( 0.023954  0.004101  0.012349)
 17:    166.38   0.000623    3.15  0.001169  ( 0.013493 -0.007607 -0.030478)
 18:    187.72   0.000042    0.21  0.000070  (-0.002068 -0.007907 -0.001775)
 19:    197.75   0.001647    8.32  0.002599  (-0.008375  0.017804  0.047033)
 20:    209.92   0.000518    2.62  0.000770  (-0.024439 -0.011501 -0.006376)
 21:    226.38   0.000234    1.18  0.000322  ( 0.016480 -0.007079  0.000886)
 22:    245.16   0.000032    0.16  0.000041  ( 0.002844 -0.004807  0.003074)
 23:    247.75   0.000152    0.77  0.000191  (-0.013242  0.001115  0.003774)
 24:    262.96   0.000375    1.89  0.000445  (-0.015108 -0.010156  0.010657)
 25:    269.59   0.000428    2.16  0.000495  (-0.021429  0.003090 -0.005146)
 26:    305.99   0.000402    2.03  0.000410  (-0.017794  0.008236  0.005011)
 27:    312.68   0.000036    0.18  0.000036  (-0.004959  0.003094 -0.001340)
 28:    325.78   0.000086    0.43  0.000082  ( 0.002520 -0.007326 -0.004686)
 29:    351.62   0.000268    1.35  0.000238  (-0.008838 -0.009226 -0.008640)
 30:    356.48   0.000091    0.46  0.000079  (-0.002792  0.003979  0.007472)
 31:    367.61   0.000199    1.00  0.000169  ( 0.012901  0.001461 -0.000335)
 32:    377.50   0.000464    2.35  0.000384  ( 0.015762  0.011516 -0.001697)
 33:    379.86   0.000495    2.50  0.000406  ( 0.016599  0.011362  0.001318)
 34:    410.42   0.000506    2.56  0.000385  ( 0.019265  0.003589  0.000831)
 35:    436.28   0.002434   12.30  0.001741  (-0.040626  0.009528  0.000260)
 36:    474.04   0.001287    6.50  0.000847  (-0.012526  0.021441  0.015176)
 37:    509.69   0.002116   10.69  0.001296  ( 0.034122 -0.008261 -0.007944)
 38:    520.27   0.005536   27.97  0.003320  (-0.050945 -0.001899  0.026858)
 39:    553.14   0.007415   37.47  0.004183  ( 0.063527 -0.008487 -0.008682)
 40:    560.70   0.002152   10.88  0.001198  ( 0.015902 -0.025522  0.017131)
 41:    571.60   0.007943   40.14  0.004336  (-0.005343 -0.045504  0.047298)
 42:    586.67   0.005692   28.76  0.003028  (-0.049518  0.015986  0.017889)
 43:    599.31   0.007834   39.59  0.004079  (-0.045067  0.011026 -0.043891)
 44:    615.28   0.005814   29.38  0.002949  ( 0.035847 -0.004176  0.040578)
 45:    636.79   0.009766   49.35  0.004786  (-0.050482 -0.003361  0.047183)
 46:    647.36   0.062772  317.22  0.030260  (-0.166521  0.037972 -0.032994)
 47:    679.65   0.001042    5.27  0.000479  ( 0.006397  0.003674 -0.020593)
 48:    707.18   0.010335   52.23  0.004561  ( 0.054661  0.010056  0.038361)
 49:    725.67   0.001861    9.40  0.000800  ( 0.023263  0.005846 -0.014994)
 50:    758.99   0.001061    5.36  0.000436  ( 0.015452  0.013134  0.004989)
 51:    784.39   0.009924   50.15  0.003948  ( 0.033261  0.013591 -0.051548)
 52:    889.63   0.003151   15.92  0.001105  ( 0.025479 -0.016677  0.013340)
 53:   1015.45   0.021318  107.73  0.006551  ( 0.063663 -0.027553  0.041703)
 54:   1080.93   0.007613   38.47  0.002198  ( 0.028352  0.018984  0.032150)
 55:   1101.83   0.100969  510.26  0.028597  ( 0.068556  0.151365 -0.031395)
 56:   1143.80   0.032694  165.22  0.008920  ( 0.035977 -0.076605  0.041919)
 57:   1145.37   0.055833  282.16  0.015212  (-0.004694 -0.116082  0.041415)
 58:   1152.39   0.050439  254.90  0.013659  (-0.017585 -0.015308  0.114522)
 59:   1162.08   0.008498   42.94  0.002282  (-0.000907 -0.028630 -0.038229)
 60:   1168.75   0.036860  186.28  0.009842  ( 0.012580  0.066746 -0.072310)
 61:   1170.29   0.035643  180.13  0.009504  (-0.020197  0.088944  0.034430)
 62:   1177.50   0.113419  573.17  0.030059  ( 0.036687  0.080118  0.149310)
 63:   1184.56   0.136199  688.29  0.035880  ( 0.041554 -0.079280 -0.166939)
 64:   1187.56   0.088957  449.55  0.023376  ( 0.030070 -0.103597 -0.108349)
 65:   1208.39   0.007316   36.97  0.001889  (-0.034645  0.012693  0.022977)
 66:   1234.32   0.006976   35.25  0.001764  ( 0.005864 -0.013801  0.039228)
 67:   1237.93   0.008161   41.24  0.002057  (-0.030336 -0.003284 -0.033559)
 68:   1292.13   0.001463    7.39  0.000353  (-0.000386 -0.015877 -0.010056)
 69:   1321.54   0.001181    5.97  0.000279  ( 0.013253  0.008235  0.005941)
 70:   1354.85   0.042245  213.49  0.009730  ( 0.069497 -0.051497  0.047419)
 71:   1420.71   0.031219  157.77  0.006857  ( 0.066149 -0.037137 -0.033204)
 72:   1439.97   0.010838   54.77  0.002349  ( 0.045369 -0.006679 -0.015678)
 73:   1844.85   0.093451  472.26  0.015808  ( 0.032259  0.114822  0.039783)
 74:   3649.06   0.051351  259.51  0.004392  (-0.048106 -0.002844  0.045489)

--------------------------
THERMOCHEMISTRY AT 298.15K
--------------------------

Temperature         ...   298.15 K
Pressure            ...     1.00 atm
Total Mass          ...   395.07 AMU
Quasi RRHO          ...     True
Cut-Off Frequency   ...     1.00 cm^-1

Throughout the following assumptions are being made:
  (1) The electronic state is orbitally nondegenerate
      but the spin degeneracy is treated
  (2) There are no thermally accessible electronically excited states
  (3) Hindered rotations indicated by low frequency modes are not
      treated as such but are treated as vibrations and this may
      cause some error
  (4) All equations used are the standard statistical mechanics
      equations for an ideal gas
  (5) All vibrations are strictly harmonic

freq.      16.85  E(vib)   ...       0.57
freq.      24.97  E(vib)   ...       0.56
freq.      29.90  E(vib)   ...       0.55
freq.      35.40  E(vib)   ...       0.54
freq.      41.76  E(vib)   ...       0.53
freq.      55.04  E(vib)   ...       0.52
freq.      60.22  E(vib)   ...       0.51
freq.      65.19  E(vib)   ...       0.50
freq.      92.44  E(vib)   ...       0.47
freq.     126.91  E(vib)   ...       0.43
freq.     147.08  E(vib)   ...       0.41
freq.     166.38  E(vib)   ...       0.39
freq.     187.72  E(vib)   ...       0.36
freq.     197.75  E(vib)   ...       0.35
freq.     209.92  E(vib)   ...       0.34
freq.     226.38  E(vib)   ...       0.33
freq.     245.16  E(vib)   ...       0.31
freq.     247.75  E(vib)   ...       0.31
freq.     262.96  E(vib)   ...       0.29
freq.     269.59  E(vib)   ...       0.29
freq.     305.99  E(vib)   ...       0.26
freq.     312.68  E(vib)   ...       0.25
freq.     325.78  E(vib)   ...       0.24
freq.     351.62  E(vib)   ...       0.23
freq.     356.48  E(vib)   ...       0.22
freq.     367.61  E(vib)   ...       0.21
freq.     377.50  E(vib)   ...       0.21
freq.     379.86  E(vib)   ...       0.21
freq.     410.42  E(vib)   ...       0.19
freq.     436.28  E(vib)   ...       0.17
freq.     474.04  E(vib)   ...       0.15
freq.     509.69  E(vib)   ...       0.14
freq.     520.27  E(vib)   ...       0.13
freq.     553.14  E(vib)   ...       0.12
freq.     560.70  E(vib)   ...       0.11
freq.     571.60  E(vib)   ...       0.11
freq.     586.67  E(vib)   ...       0.11
freq.     599.31  E(vib)   ...       0.10
freq.     615.28  E(vib)   ...       0.10
freq.     636.79  E(vib)   ...       0.09
freq.     647.36  E(vib)   ...       0.09
freq.     679.65  E(vib)   ...       0.08
freq.     707.18  E(vib)   ...       0.07
freq.     725.67  E(vib)   ...       0.06
freq.     758.99  E(vib)   ...       0.06
freq.     784.39  E(vib)   ...       0.05
freq.     889.63  E(vib)   ...       0.04
freq.    1015.45  E(vib)   ...       0.02
freq.    1080.93  E(vib)   ...       0.02
freq.    1101.83  E(vib)   ...       0.02
freq.    1143.80  E(vib)   ...       0.01
freq.    1145.37  E(vib)   ...       0.01
freq.    1152.39  E(vib)   ...       0.01
freq.    1162.08  E(vib)   ...       0.01
freq.    1168.75  E(vib)   ...       0.01
freq.    1170.29  E(vib)   ...       0.01
freq.    1177.50  E(vib)   ...       0.01
freq.    1184.56  E(vib)   ...       0.01
freq.    1187.56  E(vib)   ...       0.01
freq.    1208.39  E(vib)   ...       0.01
freq.    1234.32  E(vib)   ...       0.01
freq.    1237.93  E(vib)   ...       0.01
freq.    1292.13  E(vib)   ...       0.01
freq.    1321.54  E(vib)   ...       0.01
freq.    1354.85  E(vib)   ...       0.01
freq.    1420.71  E(vib)   ...       0.00
freq.    1439.97  E(vib)   ...       0.00
freq.    1844.85  E(vib)   ...       0.00
freq.    3649.06  E(vib)   ...       0.00

------------
INNER ENERGY
------------

The inner energy is: U= E(el) + E(ZPE) + E(vib) + E(rot) + E(trans)
    E(el)   - is the total energy from the electronic structure calculation
              = E(kin-el) + E(nuc-el) + E(el-el) + E(nuc-nuc)
    E(ZPE)  - the the zero temperature vibrational energy from the frequency calculation
    E(vib)  - the the finite temperature correction to E(ZPE) due to population
              of excited vibrational states
    E(rot)  - is the rotational thermal energy
    E(trans)- is the translational thermal energy

Summary of contributions to the inner energy U:
Electronic energy                ...  -1853.56716790 Eh
Zero point energy                ...      0.10672800 Eh      66.97 kcal/mol
Thermal vibrational correction   ...      0.02003737 Eh      12.57 kcal/mol
Thermal rotational correction    ...      0.00141627 Eh       0.89 kcal/mol
Thermal translational correction ...      0.00141627 Eh       0.89 kcal/mol
-----------------------------------------------------------------------
Total thermal energy                  -1853.43756999 Eh

Summary of corrections to the electronic energy:
(perhaps to be used in another calculation)
Total thermal correction                  0.02286991 Eh      14.35 kcal/mol
Non-thermal (ZPE) correction              0.10672800 Eh      66.97 kcal/mol
-----------------------------------------------------------------------
Total correction                          0.12959791 Eh      81.32 kcal/mol

--------
ENTHALPY
--------

The enthalpy is H = U + kB*T
                kB is Boltzmann's constant
Total thermal energy              ...  -1853.43756999 Eh
Thermal Enthalpy correction       ...      0.00094421 Eh       0.59 kcal/mol
-----------------------------------------------------------------------
Total Enthalpy                    ...  -1853.43662578 Eh

Note: Only C1 symmetry has been detected, increase convergence thresholds
      if your molecule has a higher symmetry. Symmetry factor of 1.0 is
      used for the rotational entropy correction.

Note: Rotational entropy computed according to Herzberg
Infrared and Raman Spectra, Chapter V,1, Van Nostrand Reinhold, 1945
Point Group:  C1, Symmetry Number:   1
Rotational constants in cm-1:     0.020851     0.004093     0.004024

Vibrational entropy computed according to the QRRHO of S. Grimme
Chem.Eur.J. 2012 18 9955 using a reference frequency of 100.0 cm-1

-------
ENTROPY
-------

The entropy contributions are T*S = T*(S(el)+S(vib)+S(rot)+S(trans))
     S(el)   - electronic entropy
     S(vib)  - vibrational entropy
     S(rot)  - rotational entropy
     S(trans)- translational entropy
The entropies will be listed as multiplied by the temperature to get
units of energy

Electronic entropy                ...      0.00065446 Eh      0.41 kcal/mol
Vibrational entropy               ...      0.03647664 Eh     22.89 kcal/mol

                             ****ORCA TERMINATED NORMALLY****
TOTAL RUN TIME: 0 days 0 hours 23 minutes 46 seconds 165 msec
