                         Program Version 6.0.1  -  RELEASE   -
|  1> !r2scanh def2-TZVP freq d3 TightSCF SlowConv defgrid2
|  2>
|  3> %pal
|  4> nprocs 20
|  5> end
|  6>
|  7> %scf
|  8> MaxIter 1500
|  9> end
| 10>
| 11> %maxcore 8000
| 12>
| 13> !CPCM
| 14> %cpcm smd true
| 15> SMDsolvent "ACETONITRILE"
| 16> end
| 17>
| 18> * xyz 0 2
| 19> 6        4.464222000      0.330200000     -0.178044000
| 20> 8        5.243750000     -0.507438000     -0.836072000
| 21> 8        4.586103000      1.514997000     -0.087945000
| 22> 6        3.295060000     -0.430361000      0.491075000
| 23> 6        2.184446000     -0.682419000     -0.470643000
| 24> 6        0.810597000     -1.141072000     -0.113085000
| 25> 6       -0.252260000     -0.002818000     -0.169361000
| 26> 6       -1.725824000     -0.503069000     -0.125094000
| 27> 6       -2.731217000      0.610588000      0.287152000
| 28> 6       -4.205928000      0.288519000     -0.079589000
| 29> 9        3.754079000     -1.600077000      1.017017000
| 30> 9        2.843441000      0.305183000      1.531066000
| 31> 9        2.430203000     -0.508432000     -1.753822000
| 32> 9        0.415522000     -2.108286000     -0.972164000
| 33> 9        0.834878000     -1.641815000      1.135106000
| 34> 9       -0.031517000      0.820257000      0.868024000
| 35> 9       -0.072089000      0.680433000     -1.310673000
| 36> 9       -1.828305000     -1.509246000      0.755771000
| 37> 9       -2.059142000     -0.959391000     -1.342527000
| 38> 9       -2.401967000      1.760799000     -0.320741000
| 39> 9       -2.666093000      0.782406000      1.613270000
| 40> 9       -4.525095000     -0.939477000      0.314714000
| 41> 9       -4.999164000      1.157125000      0.535894000
| 42> 9       -4.399995000      0.389413000     -1.387129000
| 43> 1        5.965125000     -0.004106000     -1.257610000
| 44> *
| 45>
| 46>                          ****END OF INPUT****

CARTESIAN COORDINATES (ANGSTROEM)
---------------------------------
  C      4.464222    0.330200   -0.178044
  O      5.243750   -0.507438   -0.836072
  O      4.586103    1.514997   -0.087945
  C      3.295060   -0.430361    0.491075
  C      2.184446   -0.682419   -0.470643
  C      0.810597   -1.141072   -0.113085
  C     -0.252260   -0.002818   -0.169361
  C     -1.725824   -0.503069   -0.125094
  C     -2.731217    0.610588    0.287152
  C     -4.205928    0.288519   -0.079589
  F      3.754079   -1.600077    1.017017
  F      2.843441    0.305183    1.531066
  F      2.430203   -0.508432   -1.753822
  F      0.415522   -2.108286   -0.972164
  F      0.834878   -1.641815    1.135106
  F     -0.031517    0.820257    0.868024
  F     -0.072089    0.680433   -1.310673
  F     -1.828305   -1.509246    0.755771
  F     -2.059142   -0.959391   -1.342527
  F     -2.401967    1.760799   -0.320741
  F     -2.666093    0.782406    1.613270
  F     -4.525095   -0.939477    0.314714
  F     -4.999164    1.157125    0.535894
  F     -4.399995    0.389413   -1.387129
  H      5.965125   -0.004106   -1.257610

 Total Charge           Charge          ....    0
 Multiplicity           Mult            ....    2
 Number of Electrons    NEL             ....  191
 Basis Dimension        Dim             ....  750

ORBITAL ENERGIES
----------------
                 SPIN UP ORBITALS
  NO   OCC          E(Eh)            E(eV)
   0   1.0000     -24.746118      -673.3761
   1   1.0000     -24.734077      -673.0485
   2   1.0000     -24.733740      -673.0393
   3   1.0000     -24.733646      -673.0367
   4   1.0000     -24.733629      -673.0363
   5   1.0000     -24.733073      -673.0211
   6   1.0000     -24.732786      -673.0133
   7   1.0000     -24.732309      -673.0004
   8   1.0000     -24.732236      -672.9984
   9   1.0000     -24.732002      -672.9920
  10   1.0000     -24.728331      -672.8921
  11   1.0000     -24.726145      -672.8326
  12   1.0000     -24.714136      -672.5058
  13   1.0000     -24.710593      -672.4094
  14   1.0000     -19.195076      -522.3246
  15   1.0000     -19.139478      -520.8117
  16   1.0000     -10.441721      -284.1337
  17   1.0000     -10.389088      -282.7015
  18   1.0000     -10.386942      -282.6431
  19   1.0000     -10.386326      -282.6263
  20   1.0000     -10.385313      -282.5987
  21   1.0000     -10.372732      -282.2564
  22   1.0000     -10.323802      -280.9249
  23   1.0000     -10.308836      -280.5177
  24   1.0000      -1.363402       -37.1001
  25   1.0000      -1.340068       -36.4651
  26   1.0000      -1.324000       -36.0279
  27   1.0000      -1.316516       -35.8242
  28   1.0000      -1.313363       -35.7384
  29   1.0000      -1.304293       -35.4916
  30   1.0000      -1.298931       -35.3457
  31   1.0000      -1.275419       -34.7059
  32   1.0000      -1.269084       -34.5335
  33   1.0000      -1.268334       -34.5131
  34   1.0000      -1.261794       -34.3352
  35   1.0000      -1.258191       -34.2371
  36   1.0000      -1.254606       -34.1396
  37   1.0000      -1.239456       -33.7273
  38   1.0000      -1.150783       -31.3144
  39   1.0000      -1.063735       -28.9457
  40   1.0000      -0.857131       -23.3237
  41   1.0000      -0.840844       -22.8805
  42   1.0000      -0.808844       -22.0098
  43   1.0000      -0.775053       -21.0903
  44   1.0000      -0.730633       -19.8815
  45   1.0000      -0.692707       -18.8495
  46   1.0000      -0.676755       -18.4154
  47   1.0000      -0.653341       -17.7783
  48   1.0000      -0.644130       -17.5277
  49   1.0000      -0.639514       -17.4021
  50   1.0000      -0.631075       -17.1724
  51   1.0000      -0.622029       -16.9263
  52   1.0000      -0.618274       -16.8241
  53   1.0000      -0.617423       -16.8009
  54   1.0000      -0.606372       -16.5002
  55   1.0000      -0.598265       -16.2796
  56   1.0000      -0.596062       -16.2197
  57   1.0000      -0.591846       -16.1050
  58   1.0000      -0.583460       -15.8767
  59   1.0000      -0.578397       -15.7390
  60   1.0000      -0.570031       -15.5113
  61   1.0000      -0.558997       -15.2111
  62   1.0000      -0.524340       -14.2680
  63   1.0000      -0.509653       -13.8684
  64   1.0000      -0.506032       -13.7698
  65   1.0000      -0.501046       -13.6341
  66   1.0000      -0.496213       -13.5026
  67   1.0000      -0.491705       -13.3800
  68   1.0000      -0.488169       -13.2837
  69   1.0000      -0.487873       -13.2757
  70   1.0000      -0.481672       -13.1070
  71   1.0000      -0.476366       -12.9626
  72   1.0000      -0.473885       -12.8951
  73   1.0000      -0.470221       -12.7954
  74   1.0000      -0.465856       -12.6766
  75   1.0000      -0.463411       -12.6101
  76   1.0000      -0.455557       -12.3963
  77   1.0000      -0.451804       -12.2942
  78   1.0000      -0.450392       -12.2558
  79   1.0000      -0.447358       -12.1732
  80   1.0000      -0.446771       -12.1573
  81   1.0000      -0.441538       -12.0149
  82   1.0000      -0.439966       -11.9721
  83   1.0000      -0.436320       -11.8729
  84   1.0000      -0.433697       -11.8015
  85   1.0000      -0.431267       -11.7354
  86   1.0000      -0.428514       -11.6605
  87   1.0000      -0.427596       -11.6355
  88   1.0000      -0.423035       -11.5114
  89   1.0000      -0.416761       -11.3407
  90   1.0000      -0.394807       -10.7432
  91   1.0000      -0.376774       -10.2525
  92   1.0000      -0.350204        -9.5295
  93   1.0000      -0.341761        -9.2998
  94   1.0000      -0.304364        -8.2822
  95   1.0000      -0.267011        -7.2657
  96   0.0000      -0.055632        -1.5138
  97   0.0000      -0.002296        -0.0625
  98   0.0000      -0.000372        -0.0101
  99   0.0000       0.029331         0.7981
 100   0.0000       0.054323         1.4782

                 SPIN DOWN ORBITALS
  NO   OCC          E(Eh)            E(eV)
   0   1.0000     -24.740834      -673.2323
   1   1.0000     -24.734079      -673.0485
   2   1.0000     -24.733744      -673.0394
   3   1.0000     -24.733653      -673.0369
   4   1.0000     -24.733620      -673.0360
   5   1.0000     -24.733065      -673.0209
   6   1.0000     -24.732785      -673.0133
   7   1.0000     -24.732306      -673.0003
   8   1.0000     -24.732221      -672.9979
   9   1.0000     -24.731979      -672.9914
  10   1.0000     -24.728085      -672.8854
  11   1.0000     -24.725138      -672.8052
  12   1.0000     -24.713028      -672.4757
  13   1.0000     -24.708815      -672.3610
  14   1.0000     -19.195057      -522.3241
  15   1.0000     -19.139449      -520.8109
  16   1.0000     -10.441701      -284.1331
  17   1.0000     -10.388954      -282.6978
  18   1.0000     -10.387434      -282.6565
  19   1.0000     -10.386889      -282.6416
  20   1.0000     -10.384602      -282.5794
  21   1.0000     -10.373660      -282.2817
  22   1.0000     -10.323769      -280.9240
  23   1.0000     -10.291873      -280.0561
  24   1.0000      -1.363384       -37.0996
  25   1.0000      -1.339726       -36.4558
  26   1.0000      -1.323188       -36.0058
  27   1.0000      -1.316400       -35.8211
  28   1.0000      -1.311678       -35.6926
  29   1.0000      -1.300198       -35.3802
  30   1.0000      -1.292751       -35.1776
  31   1.0000      -1.275372       -34.7046
  32   1.0000      -1.268943       -34.5297
  33   1.0000      -1.268267       -34.5113
  34   1.0000      -1.261569       -34.3290
  35   1.0000      -1.258123       -34.2353
  36   1.0000      -1.253483       -34.1090
  37   1.0000      -1.236443       -33.6453
  38   1.0000      -1.150695       -31.3120
  39   1.0000      -1.063675       -28.9441
  40   1.0000      -0.848547       -23.0901
  41   1.0000      -0.830871       -22.6091
  42   1.0000      -0.804152       -21.8821
  43   1.0000      -0.773327       -21.0433
  44   1.0000      -0.725144       -19.7322
  45   1.0000      -0.689564       -18.7640
  46   1.0000      -0.674950       -18.3663
  47   1.0000      -0.650115       -17.6905
  48   1.0000      -0.643118       -17.5001
  49   1.0000      -0.638577       -17.3766
  50   1.0000      -0.630762       -17.1639
  51   1.0000      -0.620198       -16.8764
  52   1.0000      -0.616677       -16.7806
  53   1.0000      -0.615866       -16.7586
  54   1.0000      -0.605025       -16.4636
  55   1.0000      -0.595913       -16.2156
  56   1.0000      -0.593941       -16.1620
  57   1.0000      -0.590724       -16.0744
  58   1.0000      -0.579091       -15.7579
  59   1.0000      -0.577464       -15.7136
  60   1.0000      -0.568856       -15.4793
  61   1.0000      -0.557193       -15.1620
  62   1.0000      -0.509441       -13.8626
  63   1.0000      -0.505980       -13.7684
  64   1.0000      -0.501470       -13.6457
  65   1.0000      -0.497692       -13.5429
  66   1.0000      -0.493315       -13.4238
  67   1.0000      -0.488375       -13.2894
  68   1.0000      -0.487742       -13.2721
  69   1.0000      -0.486764       -13.2455
  70   1.0000      -0.480342       -13.0708
  71   1.0000      -0.476124       -12.9560
  72   1.0000      -0.472707       -12.8630
  73   1.0000      -0.469408       -12.7732
  74   1.0000      -0.464361       -12.6359
  75   1.0000      -0.462629       -12.5888
  76   1.0000      -0.454541       -12.3687
  77   1.0000      -0.451192       -12.2775
  78   1.0000      -0.447374       -12.1737
  79   1.0000      -0.444879       -12.1058
  80   1.0000      -0.444448       -12.0941
  81   1.0000      -0.441280       -12.0078
  82   1.0000      -0.439862       -11.9693
  83   1.0000      -0.435910       -11.8617
  84   1.0000      -0.432538       -11.7699
  85   1.0000      -0.430699       -11.7199
  86   1.0000      -0.428140       -11.6503
  87   1.0000      -0.425687       -11.5835
  88   1.0000      -0.420800       -11.4505
  89   1.0000      -0.415494       -11.3062
  90   1.0000      -0.392356       -10.6766
  91   1.0000      -0.373902       -10.1744
  92   1.0000      -0.350030        -9.5248
  93   1.0000      -0.339140        -9.2285
  94   1.0000      -0.303748        -8.2654
  95   0.0000      -0.126243        -3.4352
  96   0.0000      -0.053800        -1.4640
  97   0.0000       0.000563         0.0153
  98   0.0000       0.003077         0.0837
  99   0.0000       0.033661         0.9160

MULLIKEN ATOMIC CHARGES AND SPIN POPULATIONS
--------------------------------------------
   0 C :    0.276974   -0.004780
   1 O :   -0.372106   -0.000334
   2 O :   -0.325642    0.000674
   3 C :    0.459590   -0.008364
   4 C :    0.087973    0.839137
   5 C :    0.381630   -0.024958
   6 C :    0.310936    0.028762
   7 C :    0.296605    0.005259
   8 C :    0.331031    0.002019
   9 C :    0.471446    0.000685
  10 F :   -0.186846    0.028999
  11 F :   -0.181313    0.017267
  12 F :   -0.148179    0.092581
  13 F :   -0.171423    0.017332
  14 F :   -0.168293    0.003812
  15 F :   -0.169101    0.000307
  16 F :   -0.168452    0.000580
  17 F :   -0.163384   -0.000106
  18 F :   -0.164038    0.000220
  19 F :   -0.163177    0.000015
  20 F :   -0.159672    0.000091
  21 F :   -0.155759   -0.000027
  22 F :   -0.153129    0.000264
  23 F :   -0.153924    0.000016
  24 H :    0.388254    0.000549
Sum of atomic charges         :   -0.0000000

LOEWDIN ATOMIC CHARGES AND SPIN POPULATIONS
-------------------------------------------
   0 C :   -0.490004    0.000819
   1 O :    0.158701    0.000441
   2 O :    0.132958    0.000823
   3 C :   -0.473137    0.056577
   4 C :   -0.158477    0.661049
   5 C :   -0.489684    0.061007
   6 C :   -0.467083    0.023479
   7 C :   -0.472585    0.005636
   8 C :   -0.479200    0.002006
   9 C :   -0.679497    0.000554
  10 F :    0.184566    0.032579
  11 F :    0.205038    0.021010
  12 F :    0.264991    0.110189
  13 F :    0.215000    0.017365
  14 F :    0.227782    0.004326
  15 F :    0.231824    0.000531
  16 F :    0.231366    0.000806
  17 F :    0.232853   -0.000106
  18 F :    0.231172    0.000273
  19 F :    0.230426   -0.000057
  20 F :    0.232609    0.000092
  21 F :    0.231038   -0.000027
  22 F :    0.231991    0.000284
  23 F :    0.233038    0.000021
  24 H :    0.234317    0.000323

  Mayer bond orders larger than 0.100000
B(  0-C ,  1-O ) :   1.2913 B(  0-C ,  2-O ) :   2.0541 B(  0-C ,  3-C ) :   0.8679
B(  1-O , 24-H ) :   0.8185 B(  3-C ,  4-C ) :   1.0353 B(  3-C , 10-F ) :   1.0627
B(  3-C , 11-F ) :   1.0795 B(  4-C ,  5-C ) :   1.0326 B(  4-C , 12-F ) :   1.1124
B(  5-C ,  6-C ) :   0.9300 B(  5-C , 13-F ) :   1.0639 B(  5-C , 14-F ) :   1.0834
B(  6-C ,  7-C ) :   0.9219 B(  6-C , 15-F ) :   1.0793 B(  6-C , 16-F ) :   1.0782
B(  7-C ,  8-C ) :   0.9311 B(  7-C , 17-F ) :   1.0815 B(  7-C , 18-F ) :   1.0895
B(  8-C ,  9-C ) :   0.9529 B(  8-C , 19-F ) :   1.0826 B(  8-C , 20-F ) :   1.0971
B(  9-C , 21-F ) :   1.1288 B(  9-C , 22-F ) :   1.1338 B(  9-C , 23-F ) :   1.1427

Dispersion correction           -0.008274994
FINAL SINGLE POINT ENERGY     -1853.567375172352

DIPOLE MOMENT
-------------

Method             : SCF
Type of density    : Electron Density
Multiplicity       :   2
Irrep              :   0
Energy             : -1853.5591001780703664 Eh
Relativity type    :
Basis              : AO
                                X                 Y                 Z
Electronic contribution:    -14.811883433      -1.410790637       1.174779224
Nuclear contribution   :     15.811918342       1.119709735      -2.050572135
                        -----------------------------------------
Total Dipole Moment    :      1.000034909      -0.291080902      -0.875792911
                        -----------------------------------------
Magnitude (a.u.)       :      1.360812674
Magnitude (Debye)      :      3.458910933

VIBRATIONAL FREQUENCIES
-----------------------

Scaling factor for frequencies =  1.000000000  (already applied!)

     0:       0.00 cm**-1
     1:       0.00 cm**-1
     2:       0.00 cm**-1
     3:       0.00 cm**-1
     4:       0.00 cm**-1
     5:       0.00 cm**-1
     6:      19.44 cm**-1
     7:      26.00 cm**-1
     8:      28.98 cm**-1
     9:      37.81 cm**-1
    10:      49.11 cm**-1
    11:      50.92 cm**-1
    12:      59.97 cm**-1
    13:      77.44 cm**-1
    14:     100.86 cm**-1
    15:     122.66 cm**-1
    16:     151.83 cm**-1
    17:     162.61 cm**-1
    18:     184.29 cm**-1
    19:     197.78 cm**-1
    20:     206.85 cm**-1
    21:     226.68 cm**-1
    22:     243.36 cm**-1
    23:     248.60 cm**-1
    24:     254.00 cm**-1
    25:     279.15 cm**-1
    26:     285.71 cm**-1
    27:     310.87 cm**-1
    28:     323.72 cm**-1
    29:     349.87 cm**-1
    30:     354.18 cm**-1
    31:     366.99 cm**-1
    32:     373.85 cm**-1
    33:     379.78 cm**-1
    34:     409.04 cm**-1
    35:     425.38 cm**-1
    36:     475.68 cm**-1
    37:     500.94 cm**-1
    38:     529.28 cm**-1
    39:     538.75 cm**-1
    40:     558.38 cm**-1
    41:     571.41 cm**-1
    42:     577.10 cm**-1
    43:     603.74 cm**-1
    44:     618.12 cm**-1
    45:     638.84 cm**-1
    46:     661.85 cm**-1
    47:     677.60 cm**-1
    48:     707.64 cm**-1
    49:     729.41 cm**-1
    50:     770.45 cm**-1
    51:     781.97 cm**-1
    52:     885.01 cm**-1
    53:    1004.64 cm**-1
    54:    1067.26 cm**-1
    55:    1105.81 cm**-1
    56:    1125.97 cm**-1
    57:    1133.68 cm**-1
    58:    1148.03 cm**-1
    59:    1158.89 cm**-1
    60:    1169.12 cm**-1
    61:    1178.84 cm**-1
    62:    1183.01 cm**-1
    63:    1188.62 cm**-1
    64:    1200.08 cm**-1
    65:    1207.90 cm**-1
    66:    1228.05 cm**-1
    67:    1264.93 cm**-1
    68:    1299.74 cm**-1
    69:    1334.78 cm**-1
    70:    1360.80 cm**-1
    71:    1387.41 cm**-1
    72:    1430.68 cm**-1
    73:    1849.51 cm**-1
    74:    3650.73 cm**-1

IR SPECTRUM
-----------

 Mode   freq       eps      Int      T**2         TX        TY        TZ
       cm**-1   L/(mol*cm) km/mol    a.u.
----------------------------------------------------------------------------
  6:     19.44   0.000235    1.19  0.003770  (-0.006921  0.054945 -0.026515)
  7:     26.00   0.000052    0.26  0.000623  ( 0.006765  0.020182  0.013025)
  8:     28.98   0.000073    0.37  0.000786  ( 0.014721 -0.021838  0.009601)
  9:     37.81   0.000018    0.09  0.000146  ( 0.003755 -0.011446  0.000870)
 10:     49.11   0.000683    3.45  0.004342  (-0.037077  0.005541 -0.054193)
 11:     50.92   0.000011    0.06  0.000067  (-0.002754 -0.006523 -0.004085)
 12:     59.97   0.000024    0.12  0.000124  (-0.006527 -0.004385 -0.007880)
 13:     77.44   0.000037    0.19  0.000151  ( 0.009533  0.007516  0.001886)
 14:    100.86   0.000073    0.37  0.000227  (-0.010776 -0.008918  0.005583)
 15:    122.66   0.000203    1.03  0.000517  ( 0.020430  0.002259 -0.009722)
 16:    151.83   0.000208    1.05  0.000427  (-0.019904  0.000749 -0.005526)
 17:    162.61   0.000253    1.28  0.000485  ( 0.008776 -0.008483 -0.018336)
 18:    184.29   0.000944    4.77  0.001599  (-0.016621  0.001720 -0.036329)
 19:    197.78   0.001454    7.35  0.002294  ( 0.008353  0.011824 -0.045658)
 20:    206.85   0.000145    0.73  0.000219  (-0.002540  0.013250 -0.006069)
 21:    226.68   0.000092    0.47  0.000127  (-0.004537 -0.009961  0.002725)
 22:    243.36   0.000046    0.23  0.000059  ( 0.005059 -0.003979  0.004154)
 23:    248.60   0.000057    0.29  0.000071  ( 0.007848  0.001153 -0.002896)
 24:    254.00   0.000489    2.47  0.000600  (-0.022211 -0.005162  0.008960)
 25:    279.15   0.000274    1.38  0.000306  ( 0.013691  0.007092  0.008263)
 26:    285.71   0.001538    7.77  0.001680  ( 0.036353 -0.018214 -0.005170)
 27:    310.87   0.000011    0.05  0.000011  (-0.000901  0.003004 -0.000965)
 28:    323.72   0.000082    0.41  0.000079  (-0.006738 -0.005303  0.002320)
 29:    349.87   0.000423    2.14  0.000377  (-0.004477 -0.009233 -0.016486)
 30:    354.18   0.000069    0.35  0.000061  (-0.007652  0.000746 -0.001246)
 31:    366.99   0.000091    0.46  0.000078  (-0.001546 -0.008681 -0.000095)
 32:    373.85   0.000778    3.93  0.000649  ( 0.020575  0.014005 -0.005440)
 33:    379.78   0.000104    0.53  0.000086  (-0.006233  0.006833 -0.000323)
 34:    409.04   0.001289    6.51  0.000983  ( 0.030577 -0.006272  0.003037)
 35:    425.38   0.001445    7.30  0.001060  ( 0.032326  0.003920 -0.000038)
 36:    475.68   0.002144   10.84  0.001407  (-0.022208 -0.008106  0.029119)
 37:    500.94   0.003413   17.25  0.002126  ( 0.042434 -0.000043 -0.018046)
 38:    529.28   0.005790   29.26  0.003414  ( 0.048416 -0.027387 -0.017872)
 39:    538.75   0.000868    4.39  0.000503  ( 0.005476 -0.021318  0.004312)
 40:    558.38   0.004883   24.68  0.002729  (-0.043495 -0.028584  0.004513)
 41:    571.41   0.005623   28.42  0.003071  ( 0.046024  0.006259  0.030222)
 42:    577.10   0.002739   13.84  0.001481  ( 0.011045 -0.032626 -0.017172)
 43:    603.74   0.007946   40.16  0.004107  (-0.060573  0.018791 -0.009232)
 44:    618.12   0.003837   19.39  0.001937  (-0.012429  0.004617 -0.041966)
 45:    638.84   0.034805  175.89  0.017002  ( 0.096040 -0.017099  0.086519)
 46:    661.85   0.043041  217.51  0.020294  ( 0.141261 -0.004693 -0.017804)
 47:    677.60   0.003162   15.98  0.001456  (-0.031613  0.010609 -0.018560)
 48:    707.64   0.013079   66.10  0.005768  (-0.071473  0.023655  0.010001)
 49:    729.41   0.003337   16.87  0.001428  (-0.032604  0.014805  0.012069)
 50:    770.45   0.001157    5.85  0.000469  (-0.003458  0.008906 -0.019425)
 51:    781.97   0.009987   50.47  0.003985  (-0.009064  0.002618  0.062422)
 52:    885.01   0.005432   27.45  0.001915  ( 0.023355 -0.034051 -0.014506)
 53:   1004.64   0.014949   75.55  0.004644  ( 0.056231  0.024263  0.029882)
 54:   1067.26   0.057976  292.99  0.016952  ( 0.057412 -0.115604  0.017083)
 55:   1105.81   0.019857  100.35  0.005604  (-0.034277  0.066510  0.002287)
 56:   1125.97   0.011464   57.93  0.003177  (-0.000679  0.054757  0.013353)
 57:   1133.68   0.035455  179.17  0.009759  (-0.057969  0.048798  0.063386)
 58:   1148.03   0.106505  538.23  0.028951  ( 0.059845  0.151327  0.049692)
 59:   1158.89   0.051717  261.35  0.013926  (-0.029250  0.034687  0.108937)
 60:   1169.12   0.033917  171.40  0.009053  (-0.008585 -0.001906 -0.094741)
 61:   1178.84   0.069831  352.90  0.018486  ( 0.010558  0.067461 -0.117572)
 62:   1183.01   0.044697  225.88  0.011791  (-0.008497 -0.086836  0.064638)
 63:   1188.62   0.110428  558.06  0.028992  ( 0.003571 -0.048869 -0.163068)
 64:   1200.08   0.054790  276.89  0.014247  ( 0.055719 -0.086882  0.059952)
 65:   1207.90   0.071455  361.10  0.018460  (-0.033781 -0.046758  0.123016)
 66:   1228.05   0.022486  113.63  0.005714  ( 0.011908  0.024787  0.070411)
 67:   1264.93   0.012683   64.10  0.003129  ( 0.044572 -0.031558 -0.012101)
 68:   1299.74   0.005506   27.82  0.001322  ( 0.019313 -0.023158  0.020312)
 69:   1334.78   0.022488  113.64  0.005258  ( 0.063151  0.035310  0.004752)
 70:   1360.80   0.022218  112.28  0.005095  ( 0.067840 -0.012361 -0.018439)
 71:   1387.41   0.008734   44.14  0.001964  ( 0.041468 -0.000691  0.015633)
 72:   1430.68   0.015768   79.68  0.003439  (-0.032755  0.028416  0.039483)
 73:   1849.51   0.093248  471.24  0.015734  ( 0.005312 -0.121479 -0.030792)
 74:   3650.73   0.050180  253.59  0.004289  (-0.054733 -0.011993  0.033908)

--------------------------
THERMOCHEMISTRY AT 298.15K
--------------------------

Temperature         ...   298.15 K
Pressure            ...     1.00 atm
Total Mass          ...   395.07 AMU
Quasi RRHO          ...     True
Cut-Off Frequency   ...     1.00 cm^-1

Throughout the following assumptions are being made:
  (1) The electronic state is orbitally nondegenerate
      but the spin degeneracy is treated
  (2) There are no thermally accessible electronically excited states
  (3) Hindered rotations indicated by low frequency modes are not
      treated as such but are treated as vibrations and this may
      cause some error
  (4) All equations used are the standard statistical mechanics
      equations for an ideal gas
  (5) All vibrations are strictly harmonic

freq.      19.44  E(vib)   ...       0.57
freq.      26.00  E(vib)   ...       0.56
freq.      28.98  E(vib)   ...       0.55
freq.      37.81  E(vib)   ...       0.54
freq.      49.11  E(vib)   ...       0.53
freq.      50.92  E(vib)   ...       0.52
freq.      59.97  E(vib)   ...       0.51
freq.      77.44  E(vib)   ...       0.49
freq.     100.86  E(vib)   ...       0.46
freq.     122.66  E(vib)   ...       0.43
freq.     151.83  E(vib)   ...       0.40
freq.     162.61  E(vib)   ...       0.39
freq.     184.29  E(vib)   ...       0.37
freq.     197.78  E(vib)   ...       0.35
freq.     206.85  E(vib)   ...       0.35
freq.     226.68  E(vib)   ...       0.33
freq.     243.36  E(vib)   ...       0.31
freq.     248.60  E(vib)   ...       0.31
freq.     254.00  E(vib)   ...       0.30
freq.     279.15  E(vib)   ...       0.28
freq.     285.71  E(vib)   ...       0.28
freq.     310.87  E(vib)   ...       0.26
freq.     323.72  E(vib)   ...       0.25
freq.     349.87  E(vib)   ...       0.23
freq.     354.18  E(vib)   ...       0.22
freq.     366.99  E(vib)   ...       0.22
freq.     373.85  E(vib)   ...       0.21
freq.     379.78  E(vib)   ...       0.21
freq.     409.04  E(vib)   ...       0.19
freq.     425.38  E(vib)   ...       0.18
freq.     475.68  E(vib)   ...       0.15
freq.     500.94  E(vib)   ...       0.14
freq.     529.28  E(vib)   ...       0.13
freq.     538.75  E(vib)   ...       0.12
freq.     558.38  E(vib)   ...       0.12
freq.     571.41  E(vib)   ...       0.11
freq.     577.10  E(vib)   ...       0.11
freq.     603.74  E(vib)   ...       0.10
freq.     618.12  E(vib)   ...       0.09
freq.     638.84  E(vib)   ...       0.09
freq.     661.85  E(vib)   ...       0.08
freq.     677.60  E(vib)   ...       0.08
freq.     707.64  E(vib)   ...       0.07
freq.     729.41  E(vib)   ...       0.06
freq.     770.45  E(vib)   ...       0.05
freq.     781.97  E(vib)   ...       0.05
freq.     885.01  E(vib)   ...       0.04
freq.    1004.64  E(vib)   ...       0.02
freq.    1067.26  E(vib)   ...       0.02
freq.    1105.81  E(vib)   ...       0.02
freq.    1125.97  E(vib)   ...       0.01
freq.    1133.68  E(vib)   ...       0.01
freq.    1148.03  E(vib)   ...       0.01
freq.    1158.89  E(vib)   ...       0.01
freq.    1169.12  E(vib)   ...       0.01
freq.    1178.84  E(vib)   ...       0.01
freq.    1183.01  E(vib)   ...       0.01
freq.    1188.62  E(vib)   ...       0.01
freq.    1200.08  E(vib)   ...       0.01
freq.    1207.90  E(vib)   ...       0.01
freq.    1228.05  E(vib)   ...       0.01
freq.    1264.93  E(vib)   ...       0.01
freq.    1299.74  E(vib)   ...       0.01
freq.    1334.78  E(vib)   ...       0.01
freq.    1360.80  E(vib)   ...       0.01
freq.    1387.41  E(vib)   ...       0.00
freq.    1430.68  E(vib)   ...       0.00
freq.    1849.51  E(vib)   ...       0.00
freq.    3650.73  E(vib)   ...       0.00

------------
INNER ENERGY
------------

The inner energy is: U= E(el) + E(ZPE) + E(vib) + E(rot) + E(trans)
    E(el)   - is the total energy from the electronic structure calculation
              = E(kin-el) + E(nuc-el) + E(el-el) + E(nuc-nuc)
    E(ZPE)  - the the zero temperature vibrational energy from the frequency calculation
    E(vib)  - the the finite temperature correction to E(ZPE) due to population
              of excited vibrational states
    E(rot)  - is the rotational thermal energy
    E(trans)- is the translational thermal energy

Summary of contributions to the inner energy U:
Electronic energy                ...  -1853.56737517 Eh
Zero point energy                ...      0.10664644 Eh      66.92 kcal/mol
Thermal vibrational correction   ...      0.02004928 Eh      12.58 kcal/mol
Thermal rotational correction    ...      0.00141627 Eh       0.89 kcal/mol
Thermal translational correction ...      0.00141627 Eh       0.89 kcal/mol
-----------------------------------------------------------------------
Total thermal energy                  -1853.43784692 Eh

Summary of corrections to the electronic energy:
(perhaps to be used in another calculation)
Total thermal correction                  0.02288182 Eh      14.36 kcal/mol
Non-thermal (ZPE) correction              0.10664644 Eh      66.92 kcal/mol
-----------------------------------------------------------------------
Total correction                          0.12952826 Eh      81.28 kcal/mol

--------
ENTHALPY
--------

The enthalpy is H = U + kB*T
                kB is Boltzmann's constant
Total thermal energy              ...  -1853.43784692 Eh
Thermal Enthalpy correction       ...      0.00094421 Eh       0.59 kcal/mol
-----------------------------------------------------------------------
Total Enthalpy                    ...  -1853.43690271 Eh

Note: Only C1 symmetry has been detected, increase convergence thresholds
      if your molecule has a higher symmetry. Symmetry factor of 1.0 is
      used for the rotational entropy correction.

Note: Rotational entropy computed according to Herzberg
Infrared and Raman Spectra, Chapter V,1, Van Nostrand Reinhold, 1945
Point Group:  C1, Symmetry Number:   1
Rotational constants in cm-1:     0.020919     0.004075     0.004010

Vibrational entropy computed according to the QRRHO of S. Grimme
Chem.Eur.J. 2012 18 9955 using a reference frequency of 100.0 cm-1

-------
ENTROPY
-------

The entropy contributions are T*S = T*(S(el)+S(vib)+S(rot)+S(trans))
     S(el)   - electronic entropy
     S(vib)  - vibrational entropy
     S(rot)  - rotational entropy
     S(trans)- translational entropy
The entropies will be listed as multiplied by the temperature to get
units of energy

Electronic entropy                ...      0.00065446 Eh      0.41 kcal/mol
Vibrational entropy               ...      0.03641323 Eh     22.85 kcal/mol

                             ****ORCA TERMINATED NORMALLY****
TOTAL RUN TIME: 0 days 0 hours 24 minutes 17 seconds 444 msec
