                         Program Version 6.0.1  -  RELEASE   -
|  1> !r2scanh def2-TZVP freq d3 TightSCF SlowConv defgrid2
|  2>
|  3> %pal
|  4> nprocs 20
|  5> end
|  6>
|  7> %scf
|  8> MaxIter 1500
|  9> end
| 10>
| 11> %maxcore 8000
| 12>
| 13> !CPCM
| 14> %cpcm smd true
| 15> SMDsolvent "ACETONITRILE"
| 16> end
| 17>
| 18> * xyz -1 1
| 19> 6        7.487515000     27.424265000      3.046320000
| 20> 6        6.615141000     26.227614000      2.576456000
| 21> 6        7.443738000     24.986050000      2.137955000
| 22> 6        6.596555000     23.677436000      2.091862000
| 23> 6        7.246185000     22.567357000      1.211771000
| 24> 6        6.687017000     21.145636000      1.507595000
| 25> 6        6.945199000     20.109349000      0.387660000
| 26> 6        6.777299000     18.643770000      0.916494000
| 27> 9        8.460570000     27.658571000      2.171905000
| 28> 9        8.020550000     27.183036000      4.235624000
| 29> 9        6.721365000     28.504880000      3.134823000
| 30> 9        5.801745000     25.891103000      3.589226000
| 31> 9        5.876199000     26.641463000      1.539703000
| 32> 9        7.951594000     25.230075000      0.920215000
| 33> 9        8.455583000     24.811928000      3.001561000
| 34> 9        6.457589000     23.222625000      3.345994000
| 35> 9        5.382570000     23.963035000      1.596226000
| 36> 9        7.023357000     22.871991000     -0.076522000
| 37> 9        8.571706000     22.565669000      1.434686000
| 38> 9        7.264298000     20.703173000      2.641935000
| 39> 9        5.361154000     21.240222000      1.716163000
| 40> 9        6.081518000     20.358004000     -0.624166000
| 41> 9        8.196120000     20.323987000     -0.094523000
| 42> 8        7.828166000     18.047518000      1.184419000
| 43> 8        5.598567000     18.274041000      1.017725000
| 44> 8        3.145575000     19.300196000      0.230077000
| 45> 1        2.663317000     18.472466000      0.149413000
| 46> 1        4.049427000     19.025629000      0.477334000
| 47> 1        9.402096000     18.823793000      1.556137000
| 48> 8       10.265695000     19.192703000      1.827489000
| 49> 1       10.291564000     20.060077000      1.414219000
| 50> *
| 51>
| 52>                          ****END OF INPUT****

CARTESIAN COORDINATES (ANGSTROEM)
---------------------------------
  C      7.487515   27.424265    3.046320
  C      6.615141   26.227614    2.576456
  C      7.443738   24.986050    2.137955
  C      6.596555   23.677436    2.091862
  C      7.246185   22.567357    1.211771
  C      6.687017   21.145636    1.507595
  C      6.945199   20.109349    0.387660
  C      6.777299   18.643770    0.916494
  F      8.460570   27.658571    2.171905
  F      8.020550   27.183036    4.235624
  F      6.721365   28.504880    3.134823
  F      5.801745   25.891103    3.589226
  F      5.876199   26.641463    1.539703
  F      7.951594   25.230075    0.920215
  F      8.455583   24.811928    3.001561
  F      6.457589   23.222625    3.345994
  F      5.382570   23.963035    1.596226
  F      7.023357   22.871991   -0.076522
  F      8.571706   22.565669    1.434686
  F      7.264298   20.703173    2.641935
  F      5.361154   21.240222    1.716163
  F      6.081518   20.358004   -0.624166
  F      8.196120   20.323987   -0.094523
  O      7.828166   18.047518    1.184419
  O      5.598567   18.274041    1.017725
  O      3.145575   19.300196    0.230077
  H      2.663317   18.472466    0.149413
  H      4.049427   19.025629    0.477334
  H      9.402096   18.823793    1.556137
  O     10.265695   19.192703    1.827489
  H     10.291564   20.060077    1.414219

 Total Charge           Charge          ....   -1
 Multiplicity           Mult            ....    1
 Number of Electrons    NEL             ....  220
 Basis Dimension        Dim             ....  861

ORBITAL ENERGIES
----------------

  NO   OCC          E(Eh)            E(eV)
   0   2.0000     -24.732328      -673.0009
   1   2.0000     -24.732058      -672.9935
   2   2.0000     -24.731975      -672.9913
   3   2.0000     -24.731935      -672.9902
   4   2.0000     -24.731308      -672.9731
   5   2.0000     -24.730613      -672.9542
   6   2.0000     -24.730513      -672.9515
   7   2.0000     -24.729908      -672.9350
   8   2.0000     -24.729748      -672.9307
   9   2.0000     -24.725965      -672.8277
  10   2.0000     -24.725169      -672.8061
  11   2.0000     -24.716892      -672.5808
  12   2.0000     -24.716133      -672.5602
  13   2.0000     -24.697065      -672.0413
  14   2.0000     -24.695118      -671.9883
  15   2.0000     -19.076270      -519.0917
  16   2.0000     -19.075270      -519.0645
  17   2.0000     -19.072768      -518.9964
  18   2.0000     -19.072229      -518.9817
  19   2.0000     -10.440146      -284.0908
  20   2.0000     -10.387228      -282.6508
  21   2.0000     -10.385386      -282.6007
  22   2.0000     -10.384845      -282.5860
  23   2.0000     -10.379282      -282.4346
  24   2.0000     -10.366426      -282.0848
  25   2.0000     -10.335353      -281.2393
  26   2.0000     -10.255557      -279.0679
  27   2.0000      -1.361792       -37.0562
  28   2.0000      -1.339276       -36.4436
  29   2.0000      -1.324320       -36.0366
  30   2.0000      -1.315135       -35.7866
  31   2.0000      -1.312704       -35.7205
  32   2.0000      -1.303727       -35.4762
  33   2.0000      -1.280867       -34.8542
  34   2.0000      -1.273818       -34.6624
  35   2.0000      -1.267538       -34.4915
  36   2.0000      -1.266746       -34.4699
  37   2.0000      -1.260844       -34.3093
  38   2.0000      -1.256892       -34.2018
  39   2.0000      -1.254216       -34.1290
  40   2.0000      -1.245068       -33.8800
  41   2.0000      -1.222224       -33.2584
  42   2.0000      -1.053145       -28.6575
  43   2.0000      -0.979584       -26.6558
  44   2.0000      -0.976343       -26.5676
  45   2.0000      -0.964834       -26.2545
  46   2.0000      -0.846434       -23.0326
  47   2.0000      -0.825271       -22.4568
  48   2.0000      -0.795964       -21.6593
  49   2.0000      -0.757732       -20.6189
  50   2.0000      -0.714224       -19.4350
  51   2.0000      -0.683389       -18.5960
  52   2.0000      -0.667215       -18.1558
  53   2.0000      -0.642667       -17.4879
  54   2.0000      -0.638059       -17.3625
  55   2.0000      -0.629590       -17.1320
  56   2.0000      -0.622343       -16.9348
  57   2.0000      -0.618226       -16.8228
  58   2.0000      -0.616778       -16.7834
  59   2.0000      -0.604281       -16.4433
  60   2.0000      -0.600250       -16.3336
  61   2.0000      -0.596329       -16.2269
  62   2.0000      -0.588753       -16.0208
  63   2.0000      -0.578306       -15.7365
  64   2.0000      -0.575976       -15.6731
  65   2.0000      -0.570183       -15.5155
  66   2.0000      -0.565416       -15.3858
  67   2.0000      -0.549452       -14.9514
  68   2.0000      -0.505988       -13.7686
  69   2.0000      -0.503968       -13.7137
  70   2.0000      -0.500927       -13.6309
  71   2.0000      -0.495696       -13.4886
  72   2.0000      -0.491812       -13.3829
  73   2.0000      -0.488088       -13.2815
  74   2.0000      -0.486982       -13.2514
  75   2.0000      -0.484434       -13.1821
  76   2.0000      -0.481401       -13.0996
  77   2.0000      -0.474037       -12.8992
  78   2.0000      -0.470371       -12.7994
  79   2.0000      -0.468504       -12.7487
  80   2.0000      -0.466021       -12.6811
  81   2.0000      -0.460360       -12.5270
  82   2.0000      -0.458070       -12.4647
  83   2.0000      -0.454257       -12.3610
  84   2.0000      -0.449385       -12.2284
  85   2.0000      -0.448783       -12.2120
  86   2.0000      -0.439826       -11.9683
  87   2.0000      -0.438438       -11.9305
  88   2.0000      -0.436268       -11.8715
  89   2.0000      -0.432543       -11.7701
  90   2.0000      -0.430946       -11.7266
  91   2.0000      -0.429044       -11.6749
  92   2.0000      -0.426811       -11.6141
  93   2.0000      -0.424462       -11.5502
  94   2.0000      -0.423118       -11.5136
  95   2.0000      -0.417435       -11.3590
  96   2.0000      -0.412886       -11.2352
  97   2.0000      -0.408958       -11.1283
  98   2.0000      -0.406664       -11.0659
  99   2.0000      -0.395302       -10.7567
 100   2.0000      -0.391292       -10.6476
 101   2.0000      -0.361785        -9.8447
 102   2.0000      -0.348555        -9.4847
 103   2.0000      -0.345361        -9.3978
 104   2.0000      -0.328584        -8.9412
 105   2.0000      -0.274996        -7.4830
 106   2.0000      -0.272073        -7.4035
 107   2.0000      -0.261795        -7.1238
 108   2.0000      -0.248273        -6.7558
 109   2.0000      -0.246271        -6.7014
 110   0.0000      -0.020403        -0.5552
 111   0.0000      -0.002972        -0.0809
 112   0.0000       0.013434         0.3656
 113   0.0000       0.038886         1.0581
 114   0.0000       0.050841         1.3835

MULLIKEN ATOMIC CHARGES
-----------------------
   0 C :    0.471126
   1 C :    0.331126
   2 C :    0.299361
   3 C :    0.324099
   4 C :    0.333484
   5 C :    0.276774
   6 C :    0.322628
   7 C :    0.336442
   8 F :   -0.156194
   9 F :   -0.153850
  10 F :   -0.153361
  11 F :   -0.163048
  12 F :   -0.159539
  13 F :   -0.163627
  14 F :   -0.163336
  15 F :   -0.164072
  16 F :   -0.164617
  17 F :   -0.167616
  18 F :   -0.171039
  19 F :   -0.177678
  20 F :   -0.176155
  21 F :   -0.200366
  22 F :   -0.205562
  23 O :   -0.524794
  24 O :   -0.537165
  25 O :   -0.741540
  26 H :    0.337324
  27 H :    0.355825
  28 H :    0.355380
  29 O :   -0.737872
  30 H :    0.337863
Sum of atomic charges:   -1.0000000

LOEWDIN ATOMIC CHARGES
----------------------
   0 C :   -0.679134
   1 C :   -0.479533
   2 C :   -0.472372
   3 C :   -0.470701
   4 C :   -0.469459
   5 C :   -0.471814
   6 C :   -0.457333
   7 C :   -0.652706
   8 F :    0.230406
   9 F :    0.233454
  10 F :    0.231848
  11 F :    0.230631
  12 F :    0.232674
  13 F :    0.232395
  14 F :    0.232037
  15 F :    0.232144
  16 F :    0.231097
  17 F :    0.227920
  18 F :    0.225838
  19 F :    0.218465
  20 F :    0.222393
  21 F :    0.185094
  22 F :    0.181249
  23 O :   -0.022245
  24 O :   -0.026853
  25 O :   -0.364674
  26 H :    0.155530
  27 H :    0.137990
  28 H :    0.135862
  29 O :   -0.359099
  30 H :    0.148895

  Mayer bond orders larger than 0.100000
B(  0-C ,  1-C ) :   0.9540 B(  0-C ,  8-F ) :   1.1275 B(  0-C ,  9-F ) :   1.1434
B(  0-C , 10-F ) :   1.1341 B(  1-C ,  2-C ) :   0.9345 B(  1-C , 11-F ) :   1.0826
B(  1-C , 12-F ) :   1.0978 B(  2-C ,  3-C ) :   0.9306 B(  2-C , 13-F ) :   1.0803
B(  2-C , 14-F ) :   1.0914 B(  3-C ,  4-C ) :   0.9336 B(  3-C , 15-F ) :   1.0812
B(  3-C , 16-F ) :   1.0806 B(  4-C ,  5-C ) :   0.9258 B(  4-C , 17-F ) :   1.0819
B(  4-C , 18-F ) :   1.0671 B(  5-C ,  6-C ) :   0.9251 B(  5-C , 19-F ) :   1.0730
B(  5-C , 20-F ) :   1.0755 B(  6-C ,  7-C ) :   0.8836 B(  6-C , 21-F ) :   1.0494
B(  6-C , 22-F ) :   1.0300 B(  7-C , 23-O ) :   1.7141 B(  7-C , 24-O ) :   1.6950
B( 23-O , 28-H ) :   0.1070 B( 24-O , 27-H ) :   0.1011 B( 25-O , 26-H ) :   0.8981
B( 25-O , 27-H ) :   0.8201 B( 28-H , 29-O ) :   0.8219 B( 29-O , 30-H ) :   0.8974

Dispersion correction           -0.010364818
FINAL SINGLE POINT ENERGY     -2105.885886960933

DIPOLE MOMENT
-------------

Method             : SCF
Type of density    : Electron Density
Multiplicity       :   1
Irrep              :   0
Energy             : -2105.8755221427691140 Eh
Relativity type    :
Basis              : AO
                                X                 Y                 Z
Electronic contribution:      2.446376272      37.039769035       6.412728392
Nuclear contribution   :     -2.333055029     -29.307106824      -5.469247713
                        -----------------------------------------
Total Dipole Moment    :      0.113321242       7.732662212       0.943480679
                        -----------------------------------------
Magnitude (a.u.)       :      7.790831944
Magnitude (Debye)      :     19.802721053

VIBRATIONAL FREQUENCIES
-----------------------

Scaling factor for frequencies =  1.000000000  (already applied!)

     0:       0.00 cm**-1
     1:       0.00 cm**-1
     2:       0.00 cm**-1
     3:       0.00 cm**-1
     4:       0.00 cm**-1
     5:       0.00 cm**-1
     6:      18.67 cm**-1
     7:      24.63 cm**-1
     8:      30.00 cm**-1
     9:      35.06 cm**-1
    10:      44.02 cm**-1
    11:      51.84 cm**-1
    12:      53.81 cm**-1
    13:      55.58 cm**-1
    14:      64.93 cm**-1
    15:      69.86 cm**-1
    16:      76.49 cm**-1
    17:      77.45 cm**-1
    18:      97.18 cm**-1
    19:     118.86 cm**-1
    20:     122.65 cm**-1
    21:     134.50 cm**-1
    22:     155.94 cm**-1
    23:     167.87 cm**-1
    24:     187.01 cm**-1
    25:     192.75 cm**-1
    26:     203.62 cm**-1
    27:     205.19 cm**-1
    28:     214.51 cm**-1
    29:     235.57 cm**-1
    30:     244.77 cm**-1
    31:     255.30 cm**-1
    32:     257.19 cm**-1
    33:     273.76 cm**-1
    34:     290.18 cm**-1
    35:     306.69 cm**-1
    36:     315.44 cm**-1
    37:     338.37 cm**-1
    38:     351.82 cm**-1
    39:     364.96 cm**-1
    40:     367.81 cm**-1
    41:     374.45 cm**-1
    42:     376.37 cm**-1
    43:     382.08 cm**-1
    44:     402.83 cm**-1
    45:     418.93 cm**-1
    46:     441.57 cm**-1
    47:     474.08 cm**-1
    48:     521.35 cm**-1
    49:     530.95 cm**-1
    50:     547.05 cm**-1
    51:     561.86 cm**-1
    52:     566.43 cm**-1
    53:     585.52 cm**-1
    54:     605.74 cm**-1
    55:     616.60 cm**-1
    56:     646.87 cm**-1
    57:     657.55 cm**-1
    58:     671.45 cm**-1
    59:     680.28 cm**-1
    60:     690.90 cm**-1
    61:     731.50 cm**-1
    62:     737.48 cm**-1
    63:     780.61 cm**-1
    64:     816.39 cm**-1
    65:     891.93 cm**-1
    66:    1019.27 cm**-1
    67:    1109.09 cm**-1
    68:    1132.27 cm**-1
    69:    1137.03 cm**-1
    70:    1144.40 cm**-1
    71:    1151.53 cm**-1
    72:    1161.95 cm**-1
    73:    1172.19 cm**-1
    74:    1174.52 cm**-1
    75:    1181.10 cm**-1
    76:    1188.34 cm**-1
    77:    1193.55 cm**-1
    78:    1210.23 cm**-1
    79:    1220.13 cm**-1
    80:    1246.29 cm**-1
    81:    1276.30 cm**-1
    82:    1296.01 cm**-1
    83:    1316.74 cm**-1
    84:    1371.51 cm**-1
    85:    1415.19 cm**-1
    86:    1667.65 cm**-1
    87:    1672.99 cm**-1
    88:    1740.75 cm**-1
    89:    3498.41 cm**-1
    90:    3529.43 cm**-1
    91:    3852.47 cm**-1
    92:    3855.39 cm**-1

IR SPECTRUM
-----------

 Mode   freq       eps      Int      T**2         TX        TY        TZ
       cm**-1   L/(mol*cm) km/mol    a.u.
----------------------------------------------------------------------------
  6:     18.67   0.000368    1.86  0.006154  (-0.000198  0.025420  0.074213)
  7:     24.63   0.000275    1.39  0.003486  ( 0.021841  0.024113 -0.049270)
  8:     30.00   0.001315    6.64  0.013673  ( 0.017875 -0.015336 -0.114537)
  9:     35.06   0.000264    1.33  0.002348  (-0.024388  0.026636  0.032300)
 10:     44.02   0.000423    2.14  0.003002  (-0.006555 -0.017671  0.051443)
 11:     51.84   0.001356    6.85  0.008165  (-0.064480 -0.041606 -0.047705)
 12:     53.81   0.000474    2.40  0.002752  ( 0.021008 -0.037512 -0.030052)
 13:     55.58   0.000136    0.69  0.000763  ( 0.009656  0.020298  0.016062)
 14:     64.93   0.001636    8.27  0.007863  ( 0.030578 -0.029316 -0.077900)
 15:     69.86   0.002965   14.98  0.013243  ( 0.025971 -0.012735 -0.111385)
 16:     76.49   0.017040   86.11  0.069516  ( 0.050132 -0.011686 -0.258584)
 17:     77.45   0.009701   49.02  0.039086  (-0.058118  0.025140  0.187287)
 18:     97.18   0.000854    4.31  0.002741  (-0.024415  0.039208 -0.024646)
 19:    118.86   0.006823   34.48  0.017913  (-0.063865  0.049978  0.106475)
 20:    122.65   0.022139  111.88  0.056327  ( 0.095461 -0.095553 -0.195151)
 21:    134.50   0.000819    4.14  0.001900  ( 0.028063 -0.027363 -0.019062)
 22:    155.94   0.000182    0.92  0.000364  (-0.007964  0.007474  0.015643)
 23:    167.87   0.000404    2.04  0.000752  (-0.022867  0.012290  0.008821)
 24:    187.01   0.001867    9.43  0.003115  (-0.042321 -0.011450  0.034541)
 25:    192.75   0.007058   35.67  0.011427  ( 0.090309 -0.008339  0.056584)
 26:    203.62   0.000297    1.50  0.000456  (-0.019518 -0.002390 -0.008301)
 27:    205.19   0.000146    0.74  0.000222  (-0.014282  0.000663 -0.004137)
 28:    214.51   0.002218   11.21  0.003227  (-0.056201 -0.004931  0.006622)
 29:    235.57   0.000557    2.81  0.000738  (-0.024829 -0.001177 -0.010938)
 30:    244.77   0.000057    0.29  0.000073  (-0.007175  0.000437 -0.004613)
 31:    255.30   0.000454    2.29  0.000555  ( 0.021700 -0.008950 -0.001930)
 32:    257.19   0.000040    0.20  0.000049  (-0.005301 -0.004512  0.000527)
 33:    273.76   0.004331   21.89  0.004937  (-0.068341  0.002386 -0.016150)
 34:    290.18   0.001413    7.14  0.001520  ( 0.010009 -0.036032 -0.011003)
 35:    306.69   0.000051    0.26  0.000052  (-0.001522  0.005293 -0.004681)
 36:    315.44   0.000230    1.16  0.000228  (-0.008401  0.011076  0.005866)
 37:    338.37   0.000201    1.01  0.000185  ( 0.006515  0.009866  0.006721)
 38:    351.82   0.000811    4.10  0.000720  (-0.015895 -0.015867 -0.014673)
 39:    364.96   0.000060    0.30  0.000051  ( 0.002293  0.001842 -0.006513)
 40:    367.81   0.000399    2.02  0.000339  (-0.012758 -0.012942 -0.002914)
 41:    374.45   0.001682    8.50  0.001402  (-0.024760 -0.027091 -0.007406)
 42:    376.37   0.006038   30.51  0.005006  (-0.056751 -0.039713 -0.014444)
 43:    382.08   0.000080    0.40  0.000065  ( 0.000597 -0.007548 -0.002824)
 44:    402.83   0.007702   38.92  0.005967  (-0.073395 -0.003420 -0.023837)
 45:    418.93   0.010038   50.73  0.007478  ( 0.081694  0.026979  0.008714)
 46:    441.57   0.018270   92.33  0.012912  (-0.088588 -0.070013  0.012737)
 47:    474.08   0.001054    5.33  0.000694  ( 0.004533  0.011286 -0.023370)
 48:    521.35   0.011719   59.22  0.007015  (-0.003536  0.076478  0.033959)
 49:    530.95   0.010656   53.85  0.006263  ( 0.019317 -0.070419 -0.030519)
 50:    547.05   0.010993   55.55  0.006271  (-0.014421 -0.058774 -0.051073)
 51:    561.86   0.010097   51.02  0.005608  (-0.043207 -0.058820  0.016768)
 52:    566.43   0.000130    0.66  0.000072  (-0.006208 -0.000346 -0.005737)
 53:    585.52   0.001439    7.27  0.000767  (-0.013309  0.023617 -0.005679)
 54:    605.74   0.002411   12.18  0.001242  ( 0.006340  0.031814  0.013776)
 55:    616.60   0.000610    3.08  0.000309  (-0.006465  0.014860  0.006778)
 56:    646.87   0.019014   96.09  0.009173  (-0.018304 -0.092180 -0.018453)
 57:    657.55   0.026399  133.41  0.012529  (-0.029714  0.015684  0.106769)
 58:    671.45   0.019662   99.36  0.009138  (-0.002962  0.094072  0.016728)
 59:    680.28   0.028283  142.93  0.012974  ( 0.058268 -0.049612 -0.084366)
 60:    690.90   0.002672   13.50  0.001207  (-0.013751 -0.031870  0.001498)
 61:    731.50   0.000495    2.50  0.000211  ( 0.005477 -0.012847  0.004002)
 62:    737.48   0.004921   24.87  0.002082  (-0.002854 -0.043209 -0.014387)
 63:    780.61   0.001108    5.60  0.000443  ( 0.008914 -0.018484  0.004667)
 64:    816.39   0.016398   82.87  0.006268  (-0.017096 -0.066823  0.038866)
 65:    891.93   0.004481   22.64  0.001568  ( 0.002794 -0.039453 -0.001812)
 66:   1019.27   0.009368   47.34  0.002868  (-0.001245 -0.043100 -0.031766)
 67:   1109.09   0.016215   81.94  0.004562  ( 0.048160  0.041256 -0.023258)
 68:   1132.27   0.020712  104.67  0.005709  (-0.068898  0.006056 -0.030412)
 69:   1137.03   0.016624   84.01  0.004563  (-0.031020  0.004217  0.059855)
 70:   1144.40   0.027113  137.02  0.007393  ( 0.042965 -0.016791  0.072563)
 71:   1151.53   0.077572  392.02  0.021022  (-0.126536 -0.037067  0.060303)
 72:   1161.95   0.081427  411.50  0.021869  ( 0.146572 -0.003708 -0.019271)
 73:   1172.19   0.005120   25.88  0.001363  (-0.013278 -0.003289  0.034294)
 74:   1174.52   0.061016  308.35  0.016212  (-0.105150  0.015991 -0.069997)
 75:   1181.10   0.109568  553.71  0.028949  (-0.076970  0.043099 -0.145491)
 76:   1188.34   0.096337  486.85  0.025298  (-0.091271  0.008749  0.129967)
 77:   1193.55   0.066085  333.97  0.017278  ( 0.083094 -0.058120  0.083642)
 78:   1210.23   0.087413  441.75  0.022540  ( 0.017736 -0.057448  0.137568)
 79:   1220.13   0.006722   33.97  0.001719  (-0.025467  0.012084 -0.030408)
 80:   1246.29   0.012919   65.29  0.003235  (-0.025314  0.047671 -0.017930)
 81:   1276.30   0.003236   16.36  0.000791  ( 0.025702 -0.011271  0.001926)
 82:   1296.01   0.003894   19.68  0.000938  ( 0.021078 -0.022209 -0.000410)
 83:   1316.74   0.007017   35.46  0.001663  (-0.010417  0.020260  0.033823)
 84:   1371.51   0.036742  185.68  0.008360  (-0.013201 -0.089698 -0.011830)
 85:   1415.19   0.026835  135.61  0.005917  (-0.011389 -0.075643  0.008103)
 86:   1667.65   0.020192  102.04  0.003779  ( 0.020221 -0.057532  0.007730)
 87:   1672.99   0.031917  161.29  0.005953  ( 0.059068 -0.034374  0.035818)
 88:   1740.75   0.220545  1114.54  0.039537  ( 0.197522 -0.012382  0.019202)
 89:   3498.41   0.290174  1466.42  0.025884  (-0.153980 -0.028260 -0.037087)
 90:   3529.43   0.102386  517.42  0.009053  ( 0.089530 -0.024670  0.020700)
 91:   3852.47   0.020962  105.93  0.001698  (-0.034771 -0.021153 -0.006440)
 92:   3855.39   0.013074   66.07  0.001058  (-0.017346 -0.026594  0.007079)

--------------------------
THERMOCHEMISTRY AT 298.15K
--------------------------

Temperature         ...   298.15 K
Pressure            ...     1.00 atm
Total Mass          ...   449.09 AMU
Quasi RRHO          ...     True
Cut-Off Frequency   ...     1.00 cm^-1

Throughout the following assumptions are being made:
  (1) The electronic state is orbitally nondegenerate
  (2) There are no thermally accessible electronically excited states
  (3) Hindered rotations indicated by low frequency modes are not
      treated as such but are treated as vibrations and this may
      cause some error
  (4) All equations used are the standard statistical mechanics
      equations for an ideal gas
  (5) All vibrations are strictly harmonic

freq.      18.67  E(vib)   ...       0.57
freq.      24.63  E(vib)   ...       0.56
freq.      30.00  E(vib)   ...       0.55
freq.      35.06  E(vib)   ...       0.54
freq.      44.02  E(vib)   ...       0.53
freq.      51.84  E(vib)   ...       0.52
freq.      53.81  E(vib)   ...       0.52
freq.      55.58  E(vib)   ...       0.52
freq.      64.93  E(vib)   ...       0.50
freq.      69.86  E(vib)   ...       0.50
freq.      76.49  E(vib)   ...       0.49
freq.      77.45  E(vib)   ...       0.49
freq.      97.18  E(vib)   ...       0.46
freq.     118.86  E(vib)   ...       0.44
freq.     122.65  E(vib)   ...       0.43
freq.     134.50  E(vib)   ...       0.42
freq.     155.94  E(vib)   ...       0.40
freq.     167.87  E(vib)   ...       0.38
freq.     187.01  E(vib)   ...       0.36
freq.     192.75  E(vib)   ...       0.36
freq.     203.62  E(vib)   ...       0.35
freq.     205.19  E(vib)   ...       0.35
freq.     214.51  E(vib)   ...       0.34
freq.     235.57  E(vib)   ...       0.32
freq.     244.77  E(vib)   ...       0.31
freq.     255.30  E(vib)   ...       0.30
freq.     257.19  E(vib)   ...       0.30
freq.     273.76  E(vib)   ...       0.28
freq.     290.18  E(vib)   ...       0.27
freq.     306.69  E(vib)   ...       0.26
freq.     315.44  E(vib)   ...       0.25
freq.     338.37  E(vib)   ...       0.23
freq.     351.82  E(vib)   ...       0.23
freq.     364.96  E(vib)   ...       0.22
freq.     367.81  E(vib)   ...       0.21
freq.     374.45  E(vib)   ...       0.21
freq.     376.37  E(vib)   ...       0.21
freq.     382.08  E(vib)   ...       0.21
freq.     402.83  E(vib)   ...       0.19
freq.     418.93  E(vib)   ...       0.18
freq.     441.57  E(vib)   ...       0.17
freq.     474.08  E(vib)   ...       0.15
freq.     521.35  E(vib)   ...       0.13
freq.     530.95  E(vib)   ...       0.13
freq.     547.05  E(vib)   ...       0.12
freq.     561.86  E(vib)   ...       0.11
freq.     566.43  E(vib)   ...       0.11
freq.     585.52  E(vib)   ...       0.11
freq.     605.74  E(vib)   ...       0.10
freq.     616.60  E(vib)   ...       0.09
freq.     646.87  E(vib)   ...       0.09
freq.     657.55  E(vib)   ...       0.08
freq.     671.45  E(vib)   ...       0.08
freq.     680.28  E(vib)   ...       0.08
freq.     690.90  E(vib)   ...       0.07
freq.     731.50  E(vib)   ...       0.06
freq.     737.48  E(vib)   ...       0.06
freq.     780.61  E(vib)   ...       0.05
freq.     816.39  E(vib)   ...       0.05
freq.     891.93  E(vib)   ...       0.03
freq.    1019.27  E(vib)   ...       0.02
freq.    1109.09  E(vib)   ...       0.02
freq.    1132.27  E(vib)   ...       0.01
freq.    1137.03  E(vib)   ...       0.01
freq.    1144.40  E(vib)   ...       0.01
freq.    1151.53  E(vib)   ...       0.01
freq.    1161.95  E(vib)   ...       0.01
freq.    1172.19  E(vib)   ...       0.01
freq.    1174.52  E(vib)   ...       0.01
freq.    1181.10  E(vib)   ...       0.01
freq.    1188.34  E(vib)   ...       0.01
freq.    1193.55  E(vib)   ...       0.01
freq.    1210.23  E(vib)   ...       0.01
freq.    1220.13  E(vib)   ...       0.01
freq.    1246.29  E(vib)   ...       0.01
freq.    1276.30  E(vib)   ...       0.01
freq.    1296.01  E(vib)   ...       0.01
freq.    1316.74  E(vib)   ...       0.01
freq.    1371.51  E(vib)   ...       0.01
freq.    1415.19  E(vib)   ...       0.00
freq.    1667.65  E(vib)   ...       0.00
freq.    1672.99  E(vib)   ...       0.00
freq.    1740.75  E(vib)   ...       0.00
freq.    3498.41  E(vib)   ...       0.00
freq.    3529.43  E(vib)   ...       0.00
freq.    3852.47  E(vib)   ...       0.00
freq.    3855.39  E(vib)   ...       0.00

------------
INNER ENERGY
------------

The inner energy is: U= E(el) + E(ZPE) + E(vib) + E(rot) + E(trans)
    E(el)   - is the total energy from the electronic structure calculation
              = E(kin-el) + E(nuc-el) + E(el-el) + E(nuc-nuc)
    E(ZPE)  - the the zero temperature vibrational energy from the frequency calculation
    E(vib)  - the the finite temperature correction to E(ZPE) due to population
              of excited vibrational states
    E(rot)  - is the rotational thermal energy
    E(trans)- is the translational thermal energy

Summary of contributions to the inner energy U:
Electronic energy                ...  -2105.88588696 Eh
Zero point energy                ...      0.14728310 Eh      92.42 kcal/mol
Thermal vibrational correction   ...      0.02689101 Eh      16.87 kcal/mol
Thermal rotational correction    ...      0.00141627 Eh       0.89 kcal/mol
Thermal translational correction ...      0.00141627 Eh       0.89 kcal/mol
-----------------------------------------------------------------------
Total thermal energy                  -2105.70888031 Eh

Summary of corrections to the electronic energy:
(perhaps to be used in another calculation)
Total thermal correction                  0.02972355 Eh      18.65 kcal/mol
Non-thermal (ZPE) correction              0.14728310 Eh      92.42 kcal/mol
-----------------------------------------------------------------------
Total correction                          0.17700665 Eh     111.07 kcal/mol

--------
ENTHALPY
--------

The enthalpy is H = U + kB*T
                kB is Boltzmann's constant
Total thermal energy              ...  -2105.70888031 Eh
Thermal Enthalpy correction       ...      0.00094421 Eh       0.59 kcal/mol
-----------------------------------------------------------------------
Total Enthalpy                    ...  -2105.70793610 Eh

Note: Only C1 symmetry has been detected, increase convergence thresholds
      if your molecule has a higher symmetry. Symmetry factor of 1.0 is
      used for the rotational entropy correction.

Note: Rotational entropy computed according to Herzberg
Infrared and Raman Spectra, Chapter V,1, Van Nostrand Reinhold, 1945
Point Group:  C1, Symmetry Number:   1
Rotational constants in cm-1:     0.013420     0.003319     0.003032

Vibrational entropy computed according to the QRRHO of S. Grimme

                             ****ORCA TERMINATED NORMALLY****
TOTAL RUN TIME: 0 days 0 hours 22 minutes 10 seconds 17 msec
