                         Program Version 6.0.1  -  RELEASE   -
|  1> !r2scanh def2-TZVP freq d3 TightSCF SlowConv defgrid2
|  2>
|  3> %pal
|  4> nprocs 20
|  5> end
|  6>
|  7> %scf
|  8> MaxIter 1500
|  9> end
| 10>
| 11> %maxcore 8000
| 12>
| 13> !CPCM
| 14> %cpcm smd true
| 15> SMDsolvent "ACETONITRILE"
| 16> end
| 17>
| 18> * xyz -2 2
| 19> 6        6.834039000     28.252806000      2.605929000
| 20> 6        6.284703000     26.826906000      2.781828000
| 21> 6        6.903577000     25.584231000      2.085237000
| 22> 6        6.424810000     24.094110000      2.170117000
| 23> 6        7.047459000     22.850847000      1.468850000
| 24> 6        6.539579000     21.401143000      1.704337000
| 25> 6        7.037506000     20.256780000      0.785910000
| 26> 6        6.708600000     18.833502000      1.333579000
| 27> 9        6.777336000     28.627718000      1.325541000
| 28> 9        8.103880000     28.324849000      3.012994000
| 29> 9        6.144742000     29.182153000      3.314350000
| 30> 9        6.330841000     26.593546000      4.129667000
| 31> 9        4.977148000     26.899437000      2.386169000
| 32> 9        6.859173000     25.890217000      0.734796000
| 33> 9        8.217641000     25.566576000      2.509612000
| 34> 9        6.470597000     23.792320000      3.522107000
| 35> 9        5.110069000     24.126743000      1.754863000
| 36> 9        6.941248000     23.081425000      0.122129000
| 37> 9        8.373611000     22.849304000      1.808740000
| 38> 9        6.866265000     21.065921000      2.982588000
| 39> 9        5.183146000     21.420588000      1.614008000
| 40> 9        6.475206000     20.439428000     -0.443431000
| 41> 9        8.381508000     20.416684000      0.620663000
| 42> 8        7.635718000     18.245142000      1.897660000
| 43> 8        5.523474000     18.475191000      1.158333000
| 44> 8        3.288576000     19.441145000     -0.070535000
| 45> 1        3.079091000     18.675914000     -0.612863000
| 46> 1        4.139209000     19.202692000      0.357440000
| 47> *
| 48>
| 49>                          ****END OF INPUT****

CARTESIAN COORDINATES (ANGSTROEM)
---------------------------------
  C      6.834039   28.252806    2.605929
  C      6.284703   26.826906    2.781828
  C      6.903577   25.584231    2.085237
  C      6.424810   24.094110    2.170117
  C      7.047459   22.850847    1.468850
  C      6.539579   21.401143    1.704337
  C      7.037506   20.256780    0.785910
  C      6.708600   18.833502    1.333579
  F      6.777336   28.627718    1.325541
  F      8.103880   28.324849    3.012994
  F      6.144742   29.182153    3.314350
  F      6.330841   26.593546    4.129667
  F      4.977148   26.899437    2.386169
  F      6.859173   25.890217    0.734796
  F      8.217641   25.566576    2.509612
  F      6.470597   23.792320    3.522107
  F      5.110069   24.126743    1.754863
  F      6.941248   23.081425    0.122129
  F      8.373611   22.849304    1.808740
  F      6.866265   21.065921    2.982588
  F      5.183146   21.420588    1.614008
  F      6.475206   20.439428   -0.443431
  F      8.381508   20.416684    0.620663
  O      7.635718   18.245142    1.897660
  O      5.523474   18.475191    1.158333
  O      3.288576   19.441145   -0.070535
  H      3.079091   18.675914   -0.612863
  H      4.139209   19.202692    0.357440

 Total Charge           Charge          ....   -2
 Multiplicity           Mult            ....    2
 Number of Electrons    NEL             ....  211
 Basis Dimension        Dim             ....  818

ORBITAL ENERGIES
----------------
                 SPIN UP ORBITALS
  NO   OCC          E(Eh)            E(eV)
   0   1.0000     -24.707384      -672.3221
   1   1.0000     -24.707274      -672.3191
   2   1.0000     -24.699497      -672.1075
   3   1.0000     -24.689238      -671.8283
   4   1.0000     -24.689037      -671.8228
   5   1.0000     -24.686026      -671.7409
   6   1.0000     -24.683290      -671.6665
   7   1.0000     -24.680689      -671.5957
   8   1.0000     -24.679414      -671.5610
   9   1.0000     -24.674957      -671.4397
  10   1.0000     -24.673703      -671.4056
  11   1.0000     -24.672937      -671.3848
  12   1.0000     -24.672062      -671.3610
  13   1.0000     -24.671974      -671.3585
  14   1.0000     -24.670998      -671.3320
  15   1.0000     -19.066739      -518.8323
  16   1.0000     -19.049968      -518.3760
  17   1.0000     -19.045594      -518.2570
  18   1.0000     -10.405682      -283.1530
  19   1.0000     -10.333951      -281.2011
  20   1.0000     -10.328203      -281.0447
  21   1.0000     -10.323810      -280.9252
  22   1.0000     -10.318079      -280.7692
  23   1.0000     -10.314652      -280.6760
  24   1.0000     -10.308609      -280.5115
  25   1.0000     -10.230566      -278.3879
  26   1.0000      -1.327937       -36.1350
  27   1.0000      -1.280548       -34.8455
  28   1.0000      -1.273123       -34.6434
  29   1.0000      -1.261107       -34.3165
  30   1.0000      -1.253120       -34.0991
  31   1.0000      -1.250435       -34.0261
  32   1.0000      -1.242652       -33.8143
  33   1.0000      -1.240115       -33.7453
  34   1.0000      -1.231117       -33.5004
  35   1.0000      -1.217879       -33.1402
  36   1.0000      -1.216322       -33.0978
  37   1.0000      -1.206219       -32.8229
  38   1.0000      -1.199818       -32.6487
  39   1.0000      -1.196262       -32.5519
  40   1.0000      -1.192373       -32.4461
  41   1.0000      -1.027000       -27.9461
  42   1.0000      -0.967726       -26.3332
  43   1.0000      -0.939966       -25.5778
  44   1.0000      -0.790387       -21.5075
  45   1.0000      -0.782607       -21.2958
  46   1.0000      -0.753649       -20.5078
  47   1.0000      -0.721501       -19.6330
  48   1.0000      -0.682186       -18.5632
  49   1.0000      -0.649993       -17.6872
  50   1.0000      -0.625130       -17.0107
  51   1.0000      -0.596355       -16.2276
  52   1.0000      -0.594785       -16.1849
  53   1.0000      -0.593383       -16.1468
  54   1.0000      -0.580164       -15.7871
  55   1.0000      -0.573780       -15.6134
  56   1.0000      -0.570214       -15.5163
  57   1.0000      -0.559863       -15.2347
  58   1.0000      -0.557081       -15.1590
  59   1.0000      -0.546910       -14.8822
  60   1.0000      -0.545264       -14.8374
  61   1.0000      -0.539803       -14.6888
  62   1.0000      -0.531726       -14.4690
  63   1.0000      -0.526747       -14.3335
  64   1.0000      -0.521175       -14.1819
  65   1.0000      -0.512132       -13.9358
  66   1.0000      -0.485699       -13.2165
  67   1.0000      -0.465007       -12.6535
  68   1.0000      -0.464656       -12.6439
  69   1.0000      -0.459034       -12.4910
  70   1.0000      -0.447730       -12.1833
  71   1.0000      -0.444226       -12.0880
  72   1.0000      -0.441868       -12.0238
  73   1.0000      -0.439623       -11.9627
  74   1.0000      -0.436515       -11.8782
  75   1.0000      -0.432928       -11.7806
  76   1.0000      -0.432656       -11.7732
  77   1.0000      -0.429629       -11.6908
  78   1.0000      -0.426671       -11.6103
  79   1.0000      -0.423505       -11.5241
  80   1.0000      -0.417715       -11.3666
  81   1.0000      -0.415968       -11.3191
  82   1.0000      -0.409577       -11.1452
  83   1.0000      -0.405486       -11.0338
  84   1.0000      -0.404038       -10.9944
  85   1.0000      -0.403902       -10.9907
  86   1.0000      -0.398278       -10.8377
  87   1.0000      -0.393974       -10.7206
  88   1.0000      -0.392110       -10.6698
  89   1.0000      -0.389559       -10.6004
  90   1.0000      -0.388028       -10.5588
  91   1.0000      -0.385264       -10.4836
  92   1.0000      -0.382253       -10.4016
  93   1.0000      -0.382099       -10.3974
  94   1.0000      -0.374892       -10.2013
  95   1.0000      -0.372264       -10.1298
  96   1.0000      -0.365689        -9.9509
  97   1.0000      -0.355063        -9.6617
  98   1.0000      -0.336753        -9.1635
  99   1.0000      -0.331145        -9.0109
 100   1.0000      -0.299234        -8.1426
 101   1.0000      -0.264168        -7.1884
 102   1.0000      -0.241268        -6.5652
 103   1.0000      -0.227130        -6.1805
 104   1.0000      -0.221523        -6.0279
 105   1.0000      -0.066201        -1.8014
 106   0.0000       0.016780         0.4566
 107   0.0000       0.041749         1.1360
 108   0.0000       0.056389         1.5344
 109   0.0000       0.070285         1.9126
 110   0.0000       0.088205         2.4002

                 SPIN DOWN ORBITALS
  NO   OCC          E(Eh)            E(eV)
   0   1.0000     -24.707354      -672.3213
   1   1.0000     -24.707242      -672.3182
   2   1.0000     -24.698129      -672.0703
   3   1.0000     -24.688805      -671.8165
   4   1.0000     -24.688594      -671.8108
   5   1.0000     -24.685919      -671.7380
   6   1.0000     -24.683105      -671.6614
   7   1.0000     -24.680324      -671.5858
   8   1.0000     -24.679022      -671.5503
   9   1.0000     -24.674259      -671.4207
  10   1.0000     -24.672941      -671.3849
  11   1.0000     -24.672857      -671.3826
  12   1.0000     -24.671864      -671.3555
  13   1.0000     -24.671413      -671.3433
  14   1.0000     -24.670274      -671.3123
  15   1.0000     -19.066740      -518.8324
  16   1.0000     -19.049706      -518.3688
  17   1.0000     -19.045256      -518.2478
  18   1.0000     -10.404130      -283.1108
  19   1.0000     -10.331574      -281.1364
  20   1.0000     -10.326899      -281.0092
  21   1.0000     -10.321372      -280.8588
  22   1.0000     -10.314431      -280.6699
  23   1.0000     -10.311022      -280.5772
  24   1.0000     -10.307994      -280.4948
  25   1.0000     -10.230281      -278.3801
  26   1.0000      -1.326842       -36.1052
  27   1.0000      -1.279391       -34.8140
  28   1.0000      -1.271486       -34.5989
  29   1.0000      -1.259792       -34.2807
  30   1.0000      -1.252761       -34.0894
  31   1.0000      -1.248767       -33.9807
  32   1.0000      -1.242531       -33.8110
  33   1.0000      -1.238268       -33.6950
  34   1.0000      -1.229022       -33.4434
  35   1.0000      -1.217206       -33.1219
  36   1.0000      -1.215624       -33.0788
  37   1.0000      -1.205470       -32.8025
  38   1.0000      -1.198709       -32.6185
  39   1.0000      -1.196025       -32.5455
  40   1.0000      -1.191144       -32.4127
  41   1.0000      -1.026431       -27.9306
  42   1.0000      -0.967710       -26.3327
  43   1.0000      -0.939449       -25.5637
  44   1.0000      -0.779586       -21.2136
  45   1.0000      -0.774700       -21.0807
  46   1.0000      -0.743878       -20.2419
  47   1.0000      -0.714146       -19.4329
  48   1.0000      -0.677715       -18.4416
  49   1.0000      -0.647226       -17.6119
  50   1.0000      -0.622462       -16.9380
  51   1.0000      -0.595505       -16.2045
  52   1.0000      -0.591586       -16.0979
  53   1.0000      -0.588977       -16.0269
  54   1.0000      -0.577613       -15.7176
  55   1.0000      -0.569715       -15.5027
  56   1.0000      -0.568656       -15.4739
  57   1.0000      -0.558506       -15.1977
  58   1.0000      -0.552512       -15.0346
  59   1.0000      -0.545438       -14.8421
  60   1.0000      -0.541139       -14.7251
  61   1.0000      -0.537860       -14.6359
  62   1.0000      -0.530691       -14.4408
  63   1.0000      -0.521944       -14.2028
  64   1.0000      -0.518255       -14.1024
  65   1.0000      -0.511200       -13.9104
  66   1.0000      -0.485596       -13.2137
  67   1.0000      -0.464242       -12.6327
  68   1.0000      -0.462912       -12.5965
  69   1.0000      -0.458422       -12.4743
  70   1.0000      -0.447194       -12.1688
  71   1.0000      -0.443587       -12.0706
  72   1.0000      -0.441399       -12.0111
  73   1.0000      -0.439163       -11.9502
  74   1.0000      -0.435671       -11.8552
  75   1.0000      -0.432309       -11.7637
  76   1.0000      -0.431677       -11.7465
  77   1.0000      -0.428798       -11.6682
  78   1.0000      -0.425657       -11.5827
  79   1.0000      -0.422826       -11.5057
  80   1.0000      -0.416648       -11.3376
  81   1.0000      -0.414875       -11.2893
  82   1.0000      -0.408891       -11.1265
  83   1.0000      -0.404336       -11.0026
  84   1.0000      -0.403565       -10.9816
  85   1.0000      -0.402936       -10.9644
  86   1.0000      -0.397175       -10.8077
  87   1.0000      -0.392637       -10.6842
  88   1.0000      -0.391580       -10.6554
  89   1.0000      -0.388959       -10.5841
  90   1.0000      -0.386394       -10.5143
  91   1.0000      -0.381734       -10.3875
  92   1.0000      -0.379789       -10.3346
  93   1.0000      -0.379302       -10.3213
  94   1.0000      -0.370857       -10.0915
  95   1.0000      -0.370293       -10.0762
  96   1.0000      -0.358063        -9.7434
  97   1.0000      -0.349218        -9.5027
  98   1.0000      -0.336502        -9.1567
  99   1.0000      -0.326730        -8.8908
 100   1.0000      -0.296586        -8.0705
 101   1.0000      -0.264148        -7.1878
 102   1.0000      -0.239939        -6.5291
 103   1.0000      -0.226430        -6.1615
 104   1.0000      -0.220687        -6.0052
 105   0.0000      -0.010298        -0.2802
 106   0.0000       0.028215         0.7678
 107   0.0000       0.048516         1.3202
 108   0.0000       0.063690         1.7331
 109   0.0000       0.081230         2.2104

MULLIKEN ATOMIC CHARGES AND SPIN POPULATIONS
--------------------------------------------
   0 C :    0.442388    0.071509
   1 C :    0.289034    0.129591
   2 C :    0.218241    0.237131
   3 C :    0.239893    0.245809
   4 C :    0.275172    0.149705
   5 C :    0.259366    0.068314
   6 C :    0.342584    0.030012
   7 C :    0.257608    0.011893
   8 F :   -0.179638   -0.000948
   9 F :   -0.179771   -0.000978
  10 F :   -0.190160    0.015025
  11 F :   -0.209837    0.002953
  12 F :   -0.209206    0.002941
  13 F :   -0.232395    0.004520
  14 F :   -0.229501    0.004046
  15 F :   -0.234306    0.003760
  16 F :   -0.229138    0.003234
  17 F :   -0.218555    0.001097
  18 F :   -0.217417    0.001486
  19 F :   -0.211508    0.000468
  20 F :   -0.204112    0.001080
  21 F :   -0.222422    0.000523
  22 F :   -0.219791    0.000715
  23 O :   -0.511077    0.009182
  24 O :   -0.568676    0.006960
  25 O :   -0.751822   -0.000030
  26 H :    0.332236    0.000016
  27 H :    0.362811   -0.000014
Sum of atomic charges         :   -2.0000000

LOEWDIN ATOMIC CHARGES AND SPIN POPULATIONS
-------------------------------------------
   0 C :   -0.669063    0.061232
   1 C :   -0.493713    0.138496
   2 C :   -0.485404    0.209504
   3 C :   -0.486064    0.209133
   4 C :   -0.482489    0.137833
   5 C :   -0.474171    0.068553
   6 C :   -0.458961    0.033453
   7 C :   -0.675545    0.014656
   8 F :    0.202085    0.000998
   9 F :    0.202021    0.000960
  10 F :    0.163233    0.023323
  11 F :    0.163550    0.007641
  12 F :    0.164662    0.007465
  13 F :    0.131560    0.012998
  14 F :    0.137760    0.012156
  15 F :    0.129145    0.012371
  16 F :    0.138573    0.011539
  17 F :    0.158545    0.006462
  18 F :    0.158875    0.006920
  19 F :    0.178196    0.002263
  20 F :    0.182828    0.003099
  21 F :    0.154631    0.001643
  22 F :    0.156656    0.001847
  23 O :   -0.045627    0.008611
  24 O :   -0.066788    0.006889
  25 O :   -0.373531   -0.000016
  26 H :    0.151569    0.000008
  27 H :    0.137468   -0.000037

  Mayer bond orders larger than 0.100000
B(  0-C ,  1-C ) :   0.9456 B(  0-C ,  8-F ) :   1.1231 B(  0-C ,  9-F ) :   1.1227
B(  0-C , 10-F ) :   1.0758 B(  1-C ,  2-C ) :   0.9173 B(  1-C , 11-F ) :   1.0281
B(  1-C , 12-F ) :   1.0282 B(  2-C ,  3-C ) :   0.8954 B(  2-C , 13-F ) :   0.9909
B(  2-C , 14-F ) :   0.9953 B(  3-C ,  4-C ) :   0.8950 B(  3-C , 15-F ) :   0.9828
B(  3-C , 16-F ) :   0.9947 B(  4-C ,  5-C ) :   0.8766 B(  4-C , 17-F ) :   1.0212
B(  4-C , 18-F ) :   1.0229 B(  5-C ,  6-C ) :   0.8946 B(  5-C , 19-F ) :   1.0427
B(  5-C , 20-F ) :   1.0580 B(  6-C ,  7-C ) :   0.8651 B(  6-C , 21-F ) :   1.0177
B(  6-C , 22-F ) :   1.0399 B(  7-C , 23-O ) :   1.8785 B(  7-C , 24-O ) :   1.6555
B( 24-O , 27-H ) :   0.1152 B( 25-O , 26-H ) :   0.9014 B( 25-O , 27-H ) :   0.8043

Dispersion correction           -0.009000283
FINAL SINGLE POINT ENERGY     -2029.491147084946

DIPOLE MOMENT
-------------

Method             : SCF
Type of density    : Electron Density
Multiplicity       :   2
Irrep              :   0
Energy             : -2029.4821468019213171 Eh
Relativity type    :
Basis              : AO
                                X                 Y                 Z
Electronic contribution:      8.567425260      28.137040177       5.931987689
Nuclear contribution   :     -7.874062277     -21.655304818      -5.610036282
                        -----------------------------------------
Total Dipole Moment    :      0.693362983       6.481735359       0.321951407
                        -----------------------------------------
Magnitude (a.u.)       :      6.526660570
Magnitude (Debye)      :     16.589452783

VIBRATIONAL FREQUENCIES
-----------------------

Scaling factor for frequencies =  1.000000000  (already applied!)

     0:       0.00 cm**-1
     1:       0.00 cm**-1
     2:       0.00 cm**-1
     3:       0.00 cm**-1
     4:       0.00 cm**-1
     5:       0.00 cm**-1
     6:      10.55 cm**-1
     7:      28.03 cm**-1
     8:      29.99 cm**-1
     9:      34.48 cm**-1
    10:      42.93 cm**-1
    11:      47.08 cm**-1
    12:      53.41 cm**-1
    13:      61.48 cm**-1
    14:      69.73 cm**-1
    15:      73.88 cm**-1
    16:      94.64 cm**-1
    17:      98.52 cm**-1
    18:     103.23 cm**-1
    19:     132.76 cm**-1
    20:     156.38 cm**-1
    21:     179.26 cm**-1
    22:     193.96 cm**-1
    23:     204.58 cm**-1
    24:     212.94 cm**-1
    25:     229.80 cm**-1
    26:     240.31 cm**-1
    27:     244.27 cm**-1
    28:     251.20 cm**-1
    29:     259.81 cm**-1
    30:     274.94 cm**-1
    31:     321.95 cm**-1
    32:     326.97 cm**-1
    33:     327.79 cm**-1
    34:     332.45 cm**-1
    35:     340.05 cm**-1
    36:     350.42 cm**-1
    37:     365.16 cm**-1
    38:     370.64 cm**-1
    39:     380.14 cm**-1
    40:     412.88 cm**-1
    41:     427.36 cm**-1
    42:     467.85 cm**-1
    43:     477.04 cm**-1
    44:     514.22 cm**-1
    45:     522.93 cm**-1
    46:     536.49 cm**-1
    47:     557.78 cm**-1
    48:     572.46 cm**-1
    49:     584.67 cm**-1
    50:     603.12 cm**-1
    51:     611.65 cm**-1
    52:     627.52 cm**-1
    53:     644.25 cm**-1
    54:     683.16 cm**-1
    55:     691.94 cm**-1
    56:     735.32 cm**-1
    57:     748.24 cm**-1
    58:     760.20 cm**-1
    59:     810.63 cm**-1
    60:     835.94 cm**-1
    61:     893.00 cm**-1
    62:     904.46 cm**-1
    63:     965.81 cm**-1
    64:     973.76 cm**-1
    65:    1000.60 cm**-1
    66:    1027.41 cm**-1
    67:    1036.67 cm**-1
    68:    1041.05 cm**-1
    69:    1049.92 cm**-1
    70:    1054.96 cm**-1
    71:    1086.45 cm**-1
    72:    1100.66 cm**-1
    73:    1107.15 cm**-1
    74:    1119.81 cm**-1
    75:    1149.94 cm**-1
    76:    1163.59 cm**-1
    77:    1171.20 cm**-1
    78:    1275.75 cm**-1
    79:    1384.62 cm**-1
    80:    1669.09 cm**-1
    81:    1721.85 cm**-1
    82:    3425.65 cm**-1
    83:    3854.58 cm**-1

IR SPECTRUM
-----------

 Mode   freq       eps      Int      T**2         TX        TY        TZ
       cm**-1   L/(mol*cm) km/mol    a.u.
----------------------------------------------------------------------------
  6:     10.55   0.000245    1.24  0.007240  ( 0.015706  0.079089  0.027180)
  7:     28.03   0.000070    0.35  0.000775  ( 0.006636  0.022859  0.014448)
  8:     29.99   0.000231    1.17  0.002399  ( 0.014038  0.041242 -0.022379)
  9:     34.48   0.000135    0.68  0.001225  (-0.012097 -0.002849  0.032717)
 10:     42.93   0.000875    4.42  0.006363  (-0.059388 -0.053158 -0.003133)
 11:     47.08   0.000378    1.91  0.002503  (-0.008534  0.033703  0.035975)
 12:     53.41   0.000231    1.17  0.001352  ( 0.009888 -0.033808 -0.010553)
 13:     61.48   0.000017    0.08  0.000084  (-0.003462 -0.007414 -0.004134)
 14:     69.73   0.000437    2.21  0.001955  (-0.024947 -0.024462 -0.027102)
 15:     73.88   0.000535    2.71  0.002262  (-0.041999  0.012262 -0.018640)
 16:     94.64   0.002271   11.48  0.007487  (-0.035186  0.053096  0.058564)
 17:     98.52   0.030330  153.28  0.096067  (-0.139765 -0.125213  0.246687)
 18:    103.23   0.000057    0.29  0.000173  (-0.010573 -0.007171 -0.003132)
 19:    132.76   0.029226  147.70  0.068700  ( 0.022251 -0.252058 -0.068353)
 20:    156.38   0.021476  108.53  0.042857  ( 0.008514  0.205487  0.023647)
 21:    179.26   0.001644    8.31  0.002862  ( 0.033550  0.032788  0.025724)
 22:    193.96   0.002978   15.05  0.004791  (-0.066048  0.017388 -0.011257)
 23:    204.58   0.001420    7.18  0.002167  (-0.036038 -0.000807 -0.029451)
 24:    212.94   0.000471    2.38  0.000690  (-0.024013 -0.010571 -0.001284)
 25:    229.80   0.001554    7.86  0.002111  (-0.033315 -0.023644 -0.021022)
 26:    240.31   0.019871  100.42  0.025804  ( 0.005185  0.158467  0.025784)
 27:    244.27   0.001052    5.32  0.001344  ( 0.016475 -0.032377 -0.004897)
 28:    251.20   0.000254    1.28  0.000316  (-0.006059  0.016677 -0.000950)
 29:    259.81   0.000245    1.24  0.000294  ( 0.014348  0.008037  0.004828)
 30:    274.94   0.001635    8.26  0.001856  ( 0.040912 -0.002146  0.013319)
 31:    321.95   0.003921   19.81  0.003800  (-0.000926  0.061145  0.007787)
 32:    326.97   0.000056    0.28  0.000053  ( 0.001948 -0.007019  0.000403)
 33:    327.79   0.013567   68.56  0.012916  (-0.000796  0.111618  0.021374)
 34:    332.45   0.000196    0.99  0.000184  (-0.005780 -0.012273  0.000085)
 35:    340.05   0.003520   17.79  0.003230  ( 0.003608 -0.054051 -0.017185)
 36:    350.42   0.010730   54.23  0.009556  ( 0.003796 -0.096237 -0.016727)
 37:    365.16   0.000023    0.12  0.000020  (-0.003030 -0.003286 -0.000065)
 38:    370.64   0.000163    0.82  0.000137  ( 0.003358  0.002421  0.010967)
 39:    380.14   0.002837   14.34  0.002329  ( 0.030515  0.023844  0.028803)
 40:    412.88   0.016854   85.17  0.012738  ( 0.079348  0.037408  0.071013)
 41:    427.36   0.003031   15.32  0.002213  (-0.031027 -0.014200 -0.032387)
 42:    467.85   0.000587    2.97  0.000392  ( 0.016345  0.011136 -0.000770)
 43:    477.04   0.001196    6.04  0.000782  ( 0.011734 -0.009015  0.023738)
 44:    514.22   0.003005   15.19  0.001824  (-0.000567  0.041034  0.011820)
 45:    522.93   0.000069    0.35  0.000041  ( 0.000270  0.003862 -0.005125)
 46:    536.49   0.004464   22.56  0.002596  (-0.015318 -0.043058  0.022536)
 47:    557.78   0.000576    2.91  0.000322  ( 0.005978  0.012435  0.011489)
 48:    572.46   0.002928   14.80  0.001596  (-0.013473  0.030422  0.022114)
 49:    584.67   0.003220   16.27  0.001719  (-0.003993 -0.040880  0.005613)
 50:    603.12   0.000784    3.96  0.000406  ( 0.005456  0.017891  0.007474)
 51:    611.65   0.000982    4.96  0.000501  ( 0.007903  0.020915  0.001032)
 52:    627.52   0.018784   94.93  0.009341  (-0.009807  0.093378  0.022925)
 53:    644.25   0.073162  369.73  0.035438  (-0.002176 -0.186218 -0.027500)
 54:    683.16   0.057367  289.91  0.026205  ( 0.006061 -0.159734 -0.025558)
 55:    691.94   0.025157  127.14  0.011346  (-0.001212  0.104221  0.021967)
 56:    735.32   0.022000  111.18  0.009336  (-0.011934 -0.095796  0.004128)
 57:    748.24   0.021349  107.89  0.008904  ( 0.055793 -0.011803 -0.075178)
 58:    760.20   0.019333   97.70  0.007936  ( 0.019943 -0.081997 -0.028544)
 59:    810.63   0.024427  123.44  0.009403  ( 0.025970  0.082428 -0.043982)
 60:    835.94   0.030969  156.50  0.011561  (-0.000024 -0.107511 -0.001469)
 61:    893.00   0.002634   13.31  0.000920  ( 0.000947  0.029516  0.006942)
 62:    904.46   0.034032  171.98  0.011742  (-0.012286  0.104500  0.025902)
 63:    965.81   0.105425  532.78  0.034064  (-0.011123  0.175361 -0.056469)
 64:    973.76   0.017694   89.42  0.005670  (-0.001168 -0.070547 -0.026308)
 65:   1000.60   0.118497  598.84  0.036957  (-0.063022 -0.181411 -0.008643)
 66:   1027.41   0.001209    6.11  0.000367  (-0.001748 -0.016660 -0.009302)
 67:   1036.67   0.008552   43.22  0.002574  (-0.017346 -0.015409 -0.045122)
 68:   1041.05   0.283680  1433.60  0.085035  ( 0.108896 -0.212257 -0.167702)
 69:   1049.92   0.121708  615.06  0.036175  (-0.091693 -0.022918 -0.165052)
 70:   1054.96   0.174277  880.73  0.051552  (-0.138450  0.163709  0.074722)
 71:   1086.45   0.099961  505.16  0.028712  (-0.059331 -0.149377 -0.053650)
 72:   1100.66   0.054083  273.32  0.015334  ( 0.120129  0.029668  0.004782)
 73:   1107.15   0.144239  728.92  0.040655  (-0.122939  0.091370 -0.131122)
 74:   1119.81   0.089560  452.60  0.024958  (-0.080325  0.088726  0.103119)
 75:   1149.94   0.053629  271.02  0.014553  (-0.004645 -0.119812  0.013302)
 76:   1163.59   0.112265  567.34  0.030108  (-0.107247  0.017422 -0.135289)
 77:   1171.20   0.284305  1436.76  0.075753  (-0.043039 -0.270951 -0.022048)
 78:   1275.75   0.224390  1133.98  0.054889  ( 0.045942  0.229596  0.007986)
 79:   1384.62   0.138819  701.53  0.031287  ( 0.036817  0.171981  0.018812)
 80:   1669.09   0.028767  145.38  0.005378  (-0.042388  0.059847 -0.000198)
 81:   1721.85   0.192056  970.57  0.034808  (-0.171175  0.038317 -0.063550)
 82:   3425.65   0.248228  1254.44  0.022613  ( 0.131747  0.012648  0.071382)
 83:   3854.58   0.017122   86.53  0.001386  ( 0.021662  0.020814  0.021994)

--------------------------
THERMOCHEMISTRY AT 298.15K
--------------------------

Temperature         ...   298.15 K
Pressure            ...     1.00 atm
Total Mass          ...   431.07 AMU
Quasi RRHO          ...     True
Cut-Off Frequency   ...     1.00 cm^-1

Throughout the following assumptions are being made:
  (1) The electronic state is orbitally nondegenerate
      but the spin degeneracy is treated
  (2) There are no thermally accessible electronically excited states
  (3) Hindered rotations indicated by low frequency modes are not
      treated as such but are treated as vibrations and this may
      cause some error
  (4) All equations used are the standard statistical mechanics
      equations for an ideal gas
  (5) All vibrations are strictly harmonic

freq.      10.55  E(vib)   ...       0.58
freq.      28.03  E(vib)   ...       0.55
freq.      29.99  E(vib)   ...       0.55
freq.      34.48  E(vib)   ...       0.54
freq.      42.93  E(vib)   ...       0.53
freq.      47.08  E(vib)   ...       0.53
freq.      53.41  E(vib)   ...       0.52
freq.      61.48  E(vib)   ...       0.51
freq.      69.73  E(vib)   ...       0.50
freq.      73.88  E(vib)   ...       0.49
freq.      94.64  E(vib)   ...       0.47
freq.      98.52  E(vib)   ...       0.46
freq.     103.23  E(vib)   ...       0.46
freq.     132.76  E(vib)   ...       0.42
freq.     156.38  E(vib)   ...       0.40
freq.     179.26  E(vib)   ...       0.37
freq.     193.96  E(vib)   ...       0.36
freq.     204.58  E(vib)   ...       0.35
freq.     212.94  E(vib)   ...       0.34
freq.     229.80  E(vib)   ...       0.32
freq.     240.31  E(vib)   ...       0.31
freq.     244.27  E(vib)   ...       0.31
freq.     251.20  E(vib)   ...       0.30
freq.     259.81  E(vib)   ...       0.30
freq.     274.94  E(vib)   ...       0.28
freq.     321.95  E(vib)   ...       0.25
freq.     326.97  E(vib)   ...       0.24
freq.     327.79  E(vib)   ...       0.24
freq.     332.45  E(vib)   ...       0.24
freq.     340.05  E(vib)   ...       0.23
freq.     350.42  E(vib)   ...       0.23
freq.     365.16  E(vib)   ...       0.22
freq.     370.64  E(vib)   ...       0.21
freq.     380.14  E(vib)   ...       0.21
freq.     412.88  E(vib)   ...       0.19
freq.     427.36  E(vib)   ...       0.18
freq.     467.85  E(vib)   ...       0.16
freq.     477.04  E(vib)   ...       0.15
freq.     514.22  E(vib)   ...       0.13
freq.     522.93  E(vib)   ...       0.13
freq.     536.49  E(vib)   ...       0.12
freq.     557.78  E(vib)   ...       0.12
freq.     572.46  E(vib)   ...       0.11
freq.     584.67  E(vib)   ...       0.11
freq.     603.12  E(vib)   ...       0.10
freq.     611.65  E(vib)   ...       0.10
freq.     627.52  E(vib)   ...       0.09
freq.     644.25  E(vib)   ...       0.09
freq.     683.16  E(vib)   ...       0.08
freq.     691.94  E(vib)   ...       0.07
freq.     735.32  E(vib)   ...       0.06
freq.     748.24  E(vib)   ...       0.06
freq.     760.20  E(vib)   ...       0.06
freq.     810.63  E(vib)   ...       0.05
freq.     835.94  E(vib)   ...       0.04
freq.     893.00  E(vib)   ...       0.03
freq.     904.46  E(vib)   ...       0.03
freq.     965.81  E(vib)   ...       0.03
freq.     973.76  E(vib)   ...       0.03
freq.    1000.60  E(vib)   ...       0.02
freq.    1027.41  E(vib)   ...       0.02
freq.    1036.67  E(vib)   ...       0.02
freq.    1041.05  E(vib)   ...       0.02
freq.    1049.92  E(vib)   ...       0.02
freq.    1054.96  E(vib)   ...       0.02
freq.    1086.45  E(vib)   ...       0.02
freq.    1100.66  E(vib)   ...       0.02
freq.    1107.15  E(vib)   ...       0.02
freq.    1119.81  E(vib)   ...       0.01
freq.    1149.94  E(vib)   ...       0.01
freq.    1163.59  E(vib)   ...       0.01
freq.    1171.20  E(vib)   ...       0.01
freq.    1275.75  E(vib)   ...       0.01
freq.    1384.62  E(vib)   ...       0.00
freq.    1669.09  E(vib)   ...       0.00
freq.    1721.85  E(vib)   ...       0.00
freq.    3425.65  E(vib)   ...       0.00
freq.    3854.58  E(vib)   ...       0.00

------------
INNER ENERGY
------------

The inner energy is: U= E(el) + E(ZPE) + E(vib) + E(rot) + E(trans)
    E(el)   - is the total energy from the electronic structure calculation
              = E(kin-el) + E(nuc-el) + E(el-el) + E(nuc-nuc)
    E(ZPE)  - the the zero temperature vibrational energy from the frequency calculation
    E(vib)  - the the finite temperature correction to E(ZPE) due to population
              of excited vibrational states
    E(rot)  - is the rotational thermal energy
    E(trans)- is the translational thermal energy

Summary of contributions to the inner energy U:
Electronic energy                ...  -2029.49114708 Eh
Zero point energy                ...      0.11492761 Eh      72.12 kcal/mol
Thermal vibrational correction   ...      0.02449449 Eh      15.37 kcal/mol
Thermal rotational correction    ...      0.00141627 Eh       0.89 kcal/mol
Thermal translational correction ...      0.00141627 Eh       0.89 kcal/mol
-----------------------------------------------------------------------
Total thermal energy                  -2029.34889244 Eh

Summary of corrections to the electronic energy:
(perhaps to be used in another calculation)
Total thermal correction                  0.02732704 Eh      17.15 kcal/mol
Non-thermal (ZPE) correction              0.11492761 Eh      72.12 kcal/mol
-----------------------------------------------------------------------
Total correction                          0.14225465 Eh      89.27 kcal/mol

--------
ENTHALPY
--------

The enthalpy is H = U + kB*T
                kB is Boltzmann's constant
Total thermal energy              ...  -2029.34889244 Eh
Thermal Enthalpy correction       ...      0.00094421 Eh       0.59 kcal/mol
-----------------------------------------------------------------------
Total Enthalpy                    ...  -2029.34794823 Eh

Note: Only C1 symmetry has been detected, increase convergence thresholds
      if your molecule has a higher symmetry. Symmetry factor of 1.0 is
      used for the rotational entropy correction.

Note: Rotational entropy computed according to Herzberg
Infrared and Raman Spectra, Chapter V,1, Van Nostrand Reinhold, 1945
Point Group:  C1, Symmetry Number:   1
Rotational constants in cm-1:     0.017194     0.003149     0.003033

Vibrational entropy computed according to the QRRHO of S. Grimme
Chem.Eur.J. 2012 18 9955 using a reference frequency of 100.0 cm-1

-------
ENTROPY
-------

The entropy contributions are T*S = T*(S(el)+S(vib)+S(rot)+S(trans))

                             ****ORCA TERMINATED NORMALLY****
TOTAL RUN TIME: 0 days 0 hours 30 minutes 2 seconds 124 msec
