                         Program Version 6.0.1  -  RELEASE   -
|  1> !B3LYP def2-TZVP freq d3 TightSCF SlowConv defgrid2
|  2>
|  3> %pal
|  4> nprocs 20
|  5> end
|  6>
|  7> %scf
|  8> MaxIter 1500
|  9> end
| 10>
| 11> %maxcore 8000
| 12>
| 13> !CPCM
| 14> %cpcm smd true
| 15> SMDsolvent "ACETONITRILE"
| 16> end
| 17>
| 18> * xyz -1 2
| 19> 6        3.629983000      0.031752000     -1.195225000
| 20> 8        3.863902000     -0.940697000     -1.921124000
| 21> 8        3.456448000      1.236143000     -1.443608000
| 22> 6        3.535847000     -0.277889000      0.364914000
| 23> 6        2.262748000      0.167014000      0.999997000
| 24> 6        0.948265000     -0.523361000      0.912678000
| 25> 6       -0.233673000      0.399199000      0.450761000
| 26> 6       -1.517775000     -0.386084000     -0.001730000
| 27> 6       -2.819378000      0.480988000      0.045281000
| 28> 6       -4.037156000     -0.134552000     -0.717477000
| 29> 9        3.717344000     -1.611634000      0.630475000
| 30> 9        4.571336000      0.383722000      0.991652000
| 31> 9        2.220813000      1.405602000      1.487812000
| 32> 9        1.031664000     -1.568656000      0.052443000
| 33> 9        0.588842000     -1.031041000      2.139099000
| 34> 9       -0.554965000      1.229459000      1.465671000
| 35> 9        0.180692000      1.145216000     -0.592767000
| 36> 9       -1.706470000     -1.458568000      0.792306000
| 37> 9       -1.327112000     -0.818372000     -1.265240000
| 38> 9       -2.572983000      1.692319000     -0.494048000
| 39> 9       -3.188250000      0.639918000      1.330632000
| 40> 9       -4.253705000     -1.392372000     -0.326617000
| 41> 9       -5.123139000      0.592618000     -0.442020000
| 42> 9       -3.836024000     -0.116875000     -2.034553000
| 43> *
| 44>
| 45>                          ****END OF INPUT****

CARTESIAN COORDINATES (ANGSTROEM)
---------------------------------
  C      3.629983    0.031752   -1.195225
  O      3.863902   -0.940697   -1.921124
  O      3.456448    1.236143   -1.443608
  C      3.535847   -0.277889    0.364914
  C      2.262748    0.167014    0.999997
  C      0.948265   -0.523361    0.912678
  C     -0.233673    0.399199    0.450761
  C     -1.517775   -0.386084   -0.001730
  C     -2.819378    0.480988    0.045281
  C     -4.037156   -0.134552   -0.717477
  F      3.717344   -1.611634    0.630475
  F      4.571336    0.383722    0.991652
  F      2.220813    1.405602    1.487812
  F      1.031664   -1.568656    0.052443
  F      0.588842   -1.031041    2.139099
  F     -0.554965    1.229459    1.465671
  F      0.180692    1.145216   -0.592767
  F     -1.706470   -1.458568    0.792306
  F     -1.327112   -0.818372   -1.265240
  F     -2.572983    1.692319   -0.494048
  F     -3.188250    0.639918    1.330632
  F     -4.253705   -1.392372   -0.326617
  F     -5.123139    0.592618   -0.442020
  F     -3.836024   -0.116875   -2.034553

 Total Charge           Charge          ....   -1
 Multiplicity           Mult            ....    2
 Number of Electrons    NEL             ....  191
 Basis Dimension        Dim             ....  744

ORBITAL ENERGIES
----------------
                 SPIN UP ORBITALS
  NO   OCC          E(Eh)            E(eV)
   0   1.0000     -24.744114      -673.3216
   1   1.0000     -24.743364      -673.3012
   2   1.0000     -24.742697      -673.2830
   3   1.0000     -24.742375      -673.2742
   4   1.0000     -24.741025      -673.2375
   5   1.0000     -24.740560      -673.2249
   6   1.0000     -24.740398      -673.2205
   7   1.0000     -24.736700      -673.1198
   8   1.0000     -24.735333      -673.0826
   9   1.0000     -24.731886      -672.9888
  10   1.0000     -24.729284      -672.9180
  11   1.0000     -24.718023      -672.6116
  12   1.0000     -24.692204      -671.9090
  13   1.0000     -24.690108      -671.8520
  14   1.0000     -19.066325      -518.8211
  15   1.0000     -19.062038      -518.7044
  16   1.0000     -10.460422      -284.6425
  17   1.0000     -10.405693      -283.1533
  18   1.0000     -10.405523      -283.1487
  19   1.0000     -10.399028      -282.9719
  20   1.0000     -10.390504      -282.7400
  21   1.0000     -10.340528      -281.3801
  22   1.0000     -10.294571      -280.1295
  23   1.0000     -10.254916      -279.0505
  24   1.0000      -1.352779       -36.8110
  25   1.0000      -1.325859       -36.0784
  26   1.0000      -1.309124       -35.6231
  27   1.0000      -1.304092       -35.4861
  28   1.0000      -1.290548       -35.1176
  29   1.0000      -1.271538       -34.6003
  30   1.0000      -1.265748       -34.4428
  31   1.0000      -1.259500       -34.2727
  32   1.0000      -1.257217       -34.2106
  33   1.0000      -1.251982       -34.0682
  34   1.0000      -1.250225       -34.0204
  35   1.0000      -1.245938       -33.9037
  36   1.0000      -1.230847       -33.4930
  37   1.0000      -1.196916       -32.5697
  38   1.0000      -1.027263       -27.9532
  39   1.0000      -0.945731       -25.7347
  40   1.0000      -0.845223       -22.9997
  41   1.0000      -0.828728       -22.5508
  42   1.0000      -0.795776       -21.6542
  43   1.0000      -0.753099       -20.4929
  44   1.0000      -0.712934       -19.3999
  45   1.0000      -0.686247       -18.6737
  46   1.0000      -0.658508       -17.9189
  47   1.0000      -0.647486       -17.6190
  48   1.0000      -0.642221       -17.4757
  49   1.0000      -0.636841       -17.3293
  50   1.0000      -0.624081       -16.9821
  51   1.0000      -0.618810       -16.8387
  52   1.0000      -0.617504       -16.8031
  53   1.0000      -0.604319       -16.4444
  54   1.0000      -0.601549       -16.3690
  55   1.0000      -0.589236       -16.0339
  56   1.0000      -0.586629       -15.9630
  57   1.0000      -0.578203       -15.7337
  58   1.0000      -0.574702       -15.6384
  59   1.0000      -0.560932       -15.2637
  60   1.0000      -0.542589       -14.7646
  61   1.0000      -0.515929       -14.0391
  62   1.0000      -0.512598       -13.9485
  63   1.0000      -0.509567       -13.8660
  64   1.0000      -0.504333       -13.7236
  65   1.0000      -0.498590       -13.5673
  66   1.0000      -0.497265       -13.5313
  67   1.0000      -0.491375       -13.3710
  68   1.0000      -0.485267       -13.2048
  69   1.0000      -0.482030       -13.1167
  70   1.0000      -0.474983       -12.9249
  71   1.0000      -0.472002       -12.8438
  72   1.0000      -0.469442       -12.7742
  73   1.0000      -0.462492       -12.5850
  74   1.0000      -0.459004       -12.4901
  75   1.0000      -0.454519       -12.3681
  76   1.0000      -0.451637       -12.2897
  77   1.0000      -0.450254       -12.2520
  78   1.0000      -0.444068       -12.0837
  79   1.0000      -0.442064       -12.0292
  80   1.0000      -0.441413       -12.0115
  81   1.0000      -0.440775       -11.9941
  82   1.0000      -0.433840       -11.8054
  83   1.0000      -0.431740       -11.7482
  84   1.0000      -0.429955       -11.6997
  85   1.0000      -0.422720       -11.5028
  86   1.0000      -0.408346       -11.1117
  87   1.0000      -0.403235       -10.9726
  88   1.0000      -0.398858       -10.8535
  89   1.0000      -0.386159       -10.5079
  90   1.0000      -0.378250       -10.2927
  91   1.0000      -0.348983        -9.4963
  92   1.0000      -0.266945        -7.2639
  93   1.0000      -0.253039        -6.8855
  94   1.0000      -0.240152        -6.5349
  95   1.0000      -0.220723        -6.0062
  96   0.0000      -0.004845        -0.1318
  97   0.0000       0.014113         0.3840
  98   0.0000       0.036876         1.0034
  99   0.0000       0.054058         1.4710
 100   0.0000       0.067964         1.8494

                 SPIN DOWN ORBITALS
  NO   OCC          E(Eh)            E(eV)
   0   1.0000     -24.744114      -673.3216
   1   1.0000     -24.743364      -673.3012
   2   1.0000     -24.742697      -673.2830
   3   1.0000     -24.742370      -673.2741
   4   1.0000     -24.741023      -673.2375
   5   1.0000     -24.740553      -673.2247
   6   1.0000     -24.740396      -673.2204
   7   1.0000     -24.736607      -673.1173
   8   1.0000     -24.735302      -673.0818
   9   1.0000     -24.729056      -672.9118
  10   1.0000     -24.727922      -672.8810
  11   1.0000     -24.716481      -672.5696
  12   1.0000     -24.691849      -671.8994
  13   1.0000     -24.689509      -671.8357
  14   1.0000     -19.065229      -518.7913
  15   1.0000     -19.061561      -518.6914
  16   1.0000     -10.460414      -284.6423
  17   1.0000     -10.405657      -283.1523
  18   1.0000     -10.405485      -283.1476
  19   1.0000     -10.398634      -282.9612
  20   1.0000     -10.391161      -282.7579
  21   1.0000     -10.341050      -281.3943
  22   1.0000     -10.280778      -279.7542
  23   1.0000     -10.254337      -279.0347
  24   1.0000      -1.352772       -36.8108
  25   1.0000      -1.325687       -36.0738
  26   1.0000      -1.308875       -35.6163
  27   1.0000      -1.303931       -35.4818
  28   1.0000      -1.289081       -35.0777
  29   1.0000      -1.265740       -34.4425
  30   1.0000      -1.264108       -34.3981
  31   1.0000      -1.259493       -34.2726
  32   1.0000      -1.257148       -34.2087
  33   1.0000      -1.250341       -34.0235
  34   1.0000      -1.249567       -34.0025
  35   1.0000      -1.245771       -33.8992
  36   1.0000      -1.228458       -33.4281
  37   1.0000      -1.195717       -32.5371
  38   1.0000      -1.025615       -27.9084
  39   1.0000      -0.943930       -25.6856
  40   1.0000      -0.843382       -22.9496
  41   1.0000      -0.820584       -22.3292
  42   1.0000      -0.788178       -21.4474
  43   1.0000      -0.749725       -20.4010
  44   1.0000      -0.711564       -19.3626
  45   1.0000      -0.685040       -18.6409
  46   1.0000      -0.654227       -17.8024
  47   1.0000      -0.646731       -17.5984
  48   1.0000      -0.640267       -17.4225
  49   1.0000      -0.636712       -17.3258
  50   1.0000      -0.623524       -16.9670
  51   1.0000      -0.617693       -16.8083
  52   1.0000      -0.615738       -16.7551
  53   1.0000      -0.603576       -16.4241
  54   1.0000      -0.599442       -16.3116
  55   1.0000      -0.587464       -15.9857
  56   1.0000      -0.583676       -15.8826
  57   1.0000      -0.575686       -15.6652
  58   1.0000      -0.569830       -15.5058
  59   1.0000      -0.558258       -15.1910
  60   1.0000      -0.541074       -14.7234
  61   1.0000      -0.515732       -14.0338
  62   1.0000      -0.509633       -13.8678
  63   1.0000      -0.506081       -13.7712
  64   1.0000      -0.500755       -13.6262
  65   1.0000      -0.498429       -13.5629
  66   1.0000      -0.491483       -13.3739
  67   1.0000      -0.484917       -13.1953
  68   1.0000      -0.483037       -13.1441
  69   1.0000      -0.480174       -13.0662
  70   1.0000      -0.472488       -12.8571
  71   1.0000      -0.470252       -12.7962
  72   1.0000      -0.468670       -12.7532
  73   1.0000      -0.462420       -12.5831
  74   1.0000      -0.457606       -12.4521
  75   1.0000      -0.453157       -12.3310
  76   1.0000      -0.451496       -12.2858
  77   1.0000      -0.449834       -12.2406
  78   1.0000      -0.443751       -12.0751
  79   1.0000      -0.441846       -12.0232
  80   1.0000      -0.440706       -11.9922
  81   1.0000      -0.436404       -11.8752
  82   1.0000      -0.432580       -11.7711
  83   1.0000      -0.430836       -11.7237
  84   1.0000      -0.429151       -11.6778
  85   1.0000      -0.421229       -11.4622
  86   1.0000      -0.407466       -11.0877
  87   1.0000      -0.401395       -10.9225
  88   1.0000      -0.396791       -10.7972
  89   1.0000      -0.384521       -10.4634
  90   1.0000      -0.375413       -10.2155
  91   1.0000      -0.346586        -9.4311
  92   1.0000      -0.252246        -6.8640
  93   1.0000      -0.240381        -6.5411
  94   1.0000      -0.238440        -6.4883
  95   0.0000      -0.101855        -2.7716
  96   0.0000      -0.003182        -0.0866
  97   0.0000       0.015523         0.4224
  98   0.0000       0.041166         1.1202
  99   0.0000       0.056898         1.5483

MULLIKEN ATOMIC CHARGES AND SPIN POPULATIONS
--------------------------------------------
   0 C :    0.148746    0.019829
   1 O :   -0.463261    0.035725
   2 O :   -0.486603    0.017391
   3 C :    0.368921   -0.022721
   4 C :    0.093534    0.807483
   5 C :    0.373338    0.009040
   6 C :    0.327812    0.007478
   7 C :    0.312137    0.002601
   8 C :    0.325346    0.000709
   9 C :    0.475787    0.000286
  10 F :   -0.216749    0.009708
  11 F :   -0.224260    0.006011
  12 F :   -0.174939    0.072964
  13 F :   -0.186453    0.003973
  14 F :   -0.194044    0.026691
  15 F :   -0.175242    0.001647
  16 F :   -0.172821    0.000933
  17 F :   -0.168890   -0.000044
  18 F :   -0.169647    0.000164
  19 F :   -0.166723    0.000005
  20 F :   -0.164084    0.000041
  21 F :   -0.155320   -0.000006
  22 F :   -0.153779    0.000085
  23 F :   -0.152807    0.000007
Sum of atomic charges         :   -1.0000000

LOEWDIN ATOMIC CHARGES AND SPIN POPULATIONS
-------------------------------------------
   0 C :   -0.680395    0.024314
   1 O :   -0.039787    0.033508
   2 O :   -0.054297    0.015596
   3 C :   -0.455156    0.058726
   4 C :   -0.184199    0.622484
   5 C :   -0.464766    0.072295
   6 C :   -0.448550    0.012179
   7 C :   -0.455904    0.002782
   8 C :   -0.463083    0.000844
   9 C :   -0.663230    0.000238
  10 F :    0.149867    0.011873
  11 F :    0.140442    0.006755
  12 F :    0.230787    0.098143
  13 F :    0.211897    0.005536
  14 F :    0.171438    0.031202
  15 F :    0.217084    0.002306
  16 F :    0.222899    0.000754
  17 F :    0.223267    0.000070
  18 F :    0.221015    0.000227
  19 F :    0.222231   -0.000000
  20 F :    0.222868    0.000066
  21 F :    0.225082   -0.000004
  22 F :    0.223656    0.000099
  23 F :    0.226836    0.000008

  Mayer bond orders larger than 0.100000
B(  0-C ,  1-O ) :   1.8832 B(  0-C ,  2-O ) :   1.8510 B(  0-C ,  3-C ) :   0.8439
B(  3-C ,  4-C ) :   1.0181 B(  3-C , 10-F ) :   1.0540 B(  3-C , 11-F ) :   1.0122
B(  4-C ,  5-C ) :   1.0525 B(  4-C , 12-F ) :   1.0796 B(  5-C ,  6-C ) :   0.9181
B(  5-C , 13-F ) :   1.0543 B(  5-C , 14-F ) :   1.0434 B(  6-C ,  7-C ) :   0.9206
B(  6-C , 15-F ) :   1.0687 B(  6-C , 16-F ) :   1.0816 B(  7-C ,  8-C ) :   0.9197
B(  7-C , 17-F ) :   1.0830 B(  7-C , 18-F ) :   1.0900 B(  8-C ,  9-C ) :   0.9692
B(  8-C , 19-F ) :   1.0854 B(  8-C , 20-F ) :   1.0931 B(  9-C , 21-F ) :   1.1457
B(  9-C , 22-F ) :   1.1461 B(  9-C , 23-F ) :   1.1562

Dispersion correction           -0.042485555
FINAL SINGLE POINT ENERGY     -1853.282570740199

DIPOLE MOMENT
-------------

Method             : SCF
Type of density    : Electron Density
Multiplicity       :   2
Irrep              :   0
Energy             : -1853.2400851853956283 Eh
Relativity type    :
Basis              : AO
                                X                 Y                 Z
Electronic contribution:    -14.467249895      -0.450284304       4.879115599
Nuclear contribution   :      7.754638207       0.338733292      -2.608952555
                        -----------------------------------------
Total Dipole Moment    :     -6.712611688      -0.111551011       2.270163044
                        -----------------------------------------
Magnitude (a.u.)       :      7.086976756
Magnitude (Debye)      :     18.013663345

VIBRATIONAL FREQUENCIES
-----------------------

Scaling factor for frequencies =  1.000000000  (already applied!)

     0:       0.00 cm**-1
     1:       0.00 cm**-1
     2:       0.00 cm**-1
     3:       0.00 cm**-1
     4:       0.00 cm**-1
     5:       0.00 cm**-1
     6:     -18.83 cm**-1  ***imaginary mode***
     7:      21.70 cm**-1
     8:      31.06 cm**-1
     9:      38.39 cm**-1
    10:      42.10 cm**-1
    11:      53.57 cm**-1
    12:      61.49 cm**-1
    13:      78.27 cm**-1
    14:      96.06 cm**-1
    15:     128.33 cm**-1
    16:     150.97 cm**-1
    17:     180.28 cm**-1
    18:     190.59 cm**-1
    19:     202.32 cm**-1
    20:     219.01 cm**-1
    21:     231.18 cm**-1
    22:     247.46 cm**-1
    23:     252.67 cm**-1
    24:     255.23 cm**-1
    25:     284.86 cm**-1
    26:     288.83 cm**-1
    27:     306.62 cm**-1
    28:     322.49 cm**-1
    29:     338.49 cm**-1
    30:     352.25 cm**-1
    31:     356.63 cm**-1
    32:     363.02 cm**-1
    33:     375.05 cm**-1
    34:     399.13 cm**-1
    35:     430.28 cm**-1
    36:     457.71 cm**-1
    37:     476.59 cm**-1
    38:     520.33 cm**-1
    39:     526.84 cm**-1
    40:     561.29 cm**-1
    41:     568.61 cm**-1
    42:     592.38 cm**-1
    43:     598.60 cm**-1
    44:     620.21 cm**-1
    45:     651.55 cm**-1
    46:     688.89 cm**-1
    47:     710.20 cm**-1
    48:     739.41 cm**-1
    49:     765.42 cm**-1
    50:     784.59 cm**-1
    51:     861.91 cm**-1
    52:     951.02 cm**-1
    53:    1000.69 cm**-1
    54:    1051.33 cm**-1
    55:    1069.49 cm**-1
    56:    1098.06 cm**-1
    57:    1122.29 cm**-1
    58:    1134.17 cm**-1
    59:    1143.03 cm**-1
    60:    1149.06 cm**-1
    61:    1155.37 cm**-1
    62:    1163.99 cm**-1
    63:    1184.67 cm**-1
    64:    1198.95 cm**-1
    65:    1223.66 cm**-1
    66:    1271.03 cm**-1
    67:    1294.69 cm**-1
    68:    1330.29 cm**-1
    69:    1342.16 cm**-1
    70:    1382.93 cm**-1
    71:    1726.71 cm**-1

IR SPECTRUM
-----------

 Mode   freq       eps      Int      T**2         TX        TY        TZ
       cm**-1   L/(mol*cm) km/mol    a.u.
----------------------------------------------------------------------------
  7:     21.70   0.000191    0.97  0.002753  (-0.027035 -0.037126 -0.025379)
  8:     31.06   0.000974    4.92  0.009789  (-0.088182 -0.034102 -0.029158)
  9:     38.39   0.000206    1.04  0.001672  (-0.030237 -0.027457 -0.001919)
 10:     42.10   0.000153    0.77  0.001135  ( 0.031600  0.003534 -0.011146)
 11:     53.57   0.000046    0.23  0.000269  (-0.015985 -0.003319  0.001432)
 12:     61.49   0.000233    1.18  0.001180  ( 0.002888  0.032574  0.010536)
 13:     78.27   0.000215    1.09  0.000857  (-0.020851  0.018998  0.007816)
 14:     96.06   0.000866    4.37  0.002812  (-0.050086 -0.015012  0.008835)
 15:    128.33   0.000081    0.41  0.000198  ( 0.013909  0.001402 -0.001603)
 16:    150.97   0.000234    1.18  0.000484  (-0.013662  0.010630  0.013573)
 17:    180.28   0.001817    9.18  0.003145  (-0.028680  0.005243  0.047902)
 18:    190.59   0.000299    1.51  0.000490  ( 0.020128  0.003308 -0.008573)
 19:    202.32   0.001658    8.38  0.002558  (-0.010077 -0.025345  0.042587)
 20:    219.01   0.000342    1.73  0.000487  ( 0.018101 -0.001594 -0.012513)
 21:    231.18   0.000049    0.25  0.000066  (-0.003625  0.006248  0.003724)
 22:    247.46   0.000092    0.47  0.000117  ( 0.007786  0.000047 -0.007482)
 23:    252.67   0.000163    0.82  0.000201  ( 0.013034  0.005190 -0.002084)
 24:    255.23   0.000273    1.38  0.000334  (-0.014307 -0.005927 -0.009698)
 25:    284.86   0.001868    9.44  0.002047  (-0.044455  0.008404  0.000242)
 26:    288.83   0.000149    0.75  0.000161  ( 0.007887  0.008691 -0.004779)
 27:    306.62   0.000122    0.62  0.000124  ( 0.006439 -0.004861  0.007674)
 28:    322.49   0.000470    2.38  0.000455  ( 0.021078 -0.001268 -0.003068)
 29:    338.49   0.000079    0.40  0.000072  (-0.003113  0.003861  0.006918)
 30:    352.25   0.000723    3.65  0.000640  ( 0.017100  0.006191  0.017588)
 31:    356.63   0.000060    0.30  0.000052  ( 0.000449 -0.002857  0.006624)
 32:    363.02   0.000050    0.25  0.000043  ( 0.004777 -0.003109  0.003259)
 33:    375.05   0.000085    0.43  0.000070  (-0.008364 -0.000315  0.000581)
 34:    399.13   0.000140    0.71  0.000109  (-0.001862  0.005171 -0.008883)
 35:    430.28   0.000548    2.77  0.000398  ( 0.008084 -0.017271 -0.005844)
 36:    457.71   0.001878    9.49  0.001280  ( 0.031156 -0.002538  0.017411)
 37:    476.59   0.004152   20.98  0.002719  ( 0.051157 -0.006281  0.007890)
 38:    520.33   0.000822    4.15  0.000493  (-0.019832 -0.000664  0.009956)
 39:    526.84   0.003910   19.76  0.002316  (-0.037347  0.030250  0.002483)
 40:    561.29   0.002878   14.54  0.001600  (-0.023658 -0.031537 -0.006761)
 41:    568.61   0.008479   42.85  0.004653  ( 0.062694  0.026316  0.005502)
 42:    592.38   0.000996    5.03  0.000525  ( 0.015056 -0.006623 -0.015938)
 43:    598.60   0.005222   26.39  0.002722  (-0.050320  0.009043 -0.010403)
 44:    620.21   0.001829    9.24  0.000920  (-0.024127  0.000670 -0.018375)
 45:    651.55   0.025947  131.12  0.012427  ( 0.110750  0.007744  0.010088)
 46:    688.89   0.031504  159.21  0.014271  (-0.119444 -0.000090  0.002112)
 47:    710.20   0.000809    4.09  0.000356  ( 0.006632 -0.001480 -0.017588)
 48:    739.41   0.008063   40.75  0.003403  ( 0.002397 -0.014329  0.056497)
 49:    765.42   0.002731   13.80  0.001114  ( 0.014180 -0.019980  0.022657)
 50:    784.59   0.030138  152.31  0.011987  (-0.018770  0.010911 -0.107312)
 51:    861.91   0.002542   12.85  0.000920  ( 0.029052 -0.008626 -0.001359)
 52:    951.02   0.002779   14.04  0.000912  ( 0.019634  0.008585 -0.021275)
 53:   1000.69   0.067162  339.41  0.020944  ( 0.096822  0.049583 -0.095453)
 54:   1051.33   0.035732  180.58  0.010606  (-0.032063 -0.083228 -0.051491)
 55:   1069.49   0.046002  232.48  0.013423  ( 0.060263 -0.065153  0.074473)
 56:   1098.06   0.004439   22.43  0.001261  ( 0.014363 -0.014789  0.028920)
 57:   1122.29   0.026385  133.34  0.007337  ( 0.023609  0.065005  0.050534)
 58:   1134.17   0.122541  619.27  0.033717  (-0.011122  0.170149  0.068135)
 59:   1143.03   0.035726  180.55  0.009754  (-0.016033 -0.028379  0.093227)
 60:   1149.06   0.067936  343.32  0.018450  (-0.017964 -0.099614  0.090579)
 61:   1155.37   0.064942  328.19  0.017541  ( 0.040865 -0.111962 -0.057750)
 62:   1163.99   0.083418  421.56  0.022364  (-0.052303 -0.022562  0.138273)
 63:   1184.67   0.071648  362.08  0.018873  ( 0.031416  0.059993 -0.119530)
 64:   1198.95   0.006704   33.88  0.001745  (-0.034416  0.017096  0.016377)
 65:   1223.66   0.020833  105.28  0.005313  (-0.055841  0.041652  0.021445)
 66:   1271.03   0.009567   48.35  0.002349  ( 0.014705 -0.028755 -0.036135)
 67:   1294.69   0.069481  351.13  0.016747  (-0.020729 -0.006364 -0.127581)
 68:   1330.29   0.009611   48.57  0.002255  ( 0.045204  0.009388 -0.011089)
 69:   1342.16   0.037289  188.44  0.008670  ( 0.080822  0.022796 -0.040227)
 70:   1382.93   0.007113   35.94  0.001605  (-0.011800 -0.030824  0.022707)
 71:   1726.71   0.155657  786.63  0.028131  ( 0.030066 -0.160601 -0.037878)

--------------------------
THERMOCHEMISTRY AT 298.15K
--------------------------

Temperature         ...   298.15 K
Pressure            ...     1.00 atm
Total Mass          ...   394.06 AMU
Quasi RRHO          ...     True
Cut-Off Frequency   ...     1.00 cm^-1

Throughout the following assumptions are being made:
  (1) The electronic state is orbitally nondegenerate
      but the spin degeneracy is treated
  (2) There are no thermally accessible electronically excited states
  (3) Hindered rotations indicated by low frequency modes are not
      treated as such but are treated as vibrations and this may
      cause some error
  (4) All equations used are the standard statistical mechanics
      equations for an ideal gas
  (5) All vibrations are strictly harmonic

freq.      21.70  E(vib)   ...       0.56
freq.      31.06  E(vib)   ...       0.55
freq.      38.39  E(vib)   ...       0.54
freq.      42.10  E(vib)   ...       0.53
freq.      53.57  E(vib)   ...       0.52
freq.      61.49  E(vib)   ...       0.51
freq.      78.27  E(vib)   ...       0.49
freq.      96.06  E(vib)   ...       0.47
freq.     128.33  E(vib)   ...       0.43
freq.     150.97  E(vib)   ...       0.40
freq.     180.28  E(vib)   ...       0.37
freq.     190.59  E(vib)   ...       0.36
freq.     202.32  E(vib)   ...       0.35
freq.     219.01  E(vib)   ...       0.33
freq.     231.18  E(vib)   ...       0.32
freq.     247.46  E(vib)   ...       0.31
freq.     252.67  E(vib)   ...       0.30
freq.     255.23  E(vib)   ...       0.30
freq.     284.86  E(vib)   ...       0.28
freq.     288.83  E(vib)   ...       0.27
freq.     306.62  E(vib)   ...       0.26
freq.     322.49  E(vib)   ...       0.25
freq.     338.49  E(vib)   ...       0.23
freq.     352.25  E(vib)   ...       0.23
freq.     356.63  E(vib)   ...       0.22
freq.     363.02  E(vib)   ...       0.22
freq.     375.05  E(vib)   ...       0.21
freq.     399.13  E(vib)   ...       0.19
freq.     430.28  E(vib)   ...       0.18
freq.     457.71  E(vib)   ...       0.16
freq.     476.59  E(vib)   ...       0.15
freq.     520.33  E(vib)   ...       0.13
freq.     526.84  E(vib)   ...       0.13
freq.     561.29  E(vib)   ...       0.11
freq.     568.61  E(vib)   ...       0.11
freq.     592.38  E(vib)   ...       0.10
freq.     598.60  E(vib)   ...       0.10
freq.     620.21  E(vib)   ...       0.09
freq.     651.55  E(vib)   ...       0.08
freq.     688.89  E(vib)   ...       0.07
freq.     710.20  E(vib)   ...       0.07
freq.     739.41  E(vib)   ...       0.06
freq.     765.42  E(vib)   ...       0.06
freq.     784.59  E(vib)   ...       0.05
freq.     861.91  E(vib)   ...       0.04
freq.     951.02  E(vib)   ...       0.03
freq.    1000.69  E(vib)   ...       0.02
freq.    1051.33  E(vib)   ...       0.02
freq.    1069.49  E(vib)   ...       0.02
freq.    1098.06  E(vib)   ...       0.02
freq.    1122.29  E(vib)   ...       0.01
freq.    1134.17  E(vib)   ...       0.01
freq.    1143.03  E(vib)   ...       0.01
freq.    1149.06  E(vib)   ...       0.01
freq.    1155.37  E(vib)   ...       0.01
freq.    1163.99  E(vib)   ...       0.01
freq.    1184.67  E(vib)   ...       0.01
freq.    1198.95  E(vib)   ...       0.01
freq.    1223.66  E(vib)   ...       0.01
freq.    1271.03  E(vib)   ...       0.01
freq.    1294.69  E(vib)   ...       0.01
freq.    1330.29  E(vib)   ...       0.01
freq.    1342.16  E(vib)   ...       0.01
freq.    1382.93  E(vib)   ...       0.01
freq.    1726.71  E(vib)   ...       0.00

------------
INNER ENERGY
------------

The inner energy is: U= E(el) + E(ZPE) + E(vib) + E(rot) + E(trans)
    E(el)   - is the total energy from the electronic structure calculation
              = E(kin-el) + E(nuc-el) + E(el-el) + E(nuc-nuc)
    E(ZPE)  - the the zero temperature vibrational energy from the frequency calculation
    E(vib)  - the the finite temperature correction to E(ZPE) due to population
              of excited vibrational states
    E(rot)  - is the rotational thermal energy
    E(trans)- is the translational thermal energy

Summary of contributions to the inner energy U:
Electronic energy                ...  -1853.28257074 Eh
Zero point energy                ...      0.09207543 Eh      57.78 kcal/mol
Thermal vibrational correction   ...      0.01905748 Eh      11.96 kcal/mol
Thermal rotational correction    ...      0.00141627 Eh       0.89 kcal/mol
Thermal translational correction ...      0.00141627 Eh       0.89 kcal/mol
-----------------------------------------------------------------------
Total thermal energy                  -1853.16860528 Eh

Summary of corrections to the electronic energy:
(perhaps to be used in another calculation)
Total thermal correction                  0.02189003 Eh      13.74 kcal/mol
Non-thermal (ZPE) correction              0.09207543 Eh      57.78 kcal/mol
-----------------------------------------------------------------------
Total correction                          0.11396546 Eh      71.51 kcal/mol

--------
ENTHALPY
--------

The enthalpy is H = U + kB*T
                kB is Boltzmann's constant
Total thermal energy              ...  -1853.16860528 Eh
Thermal Enthalpy correction       ...      0.00094421 Eh       0.59 kcal/mol
-----------------------------------------------------------------------
Total Enthalpy                    ...  -1853.16766107 Eh

Note: Only C1 symmetry has been detected, increase convergence thresholds
      if your molecule has a higher symmetry. Symmetry factor of 1.0 is
      used for the rotational entropy correction.

Note: Rotational entropy computed according to Herzberg
Infrared and Raman Spectra, Chapter V,1, Van Nostrand Reinhold, 1945
Point Group:  C1, Symmetry Number:   1
Rotational constants in cm-1:     0.018521     0.004358     0.004267

Vibrational entropy computed according to the QRRHO of S. Grimme
Chem.Eur.J. 2012 18 9955 using a reference frequency of 100.0 cm-1

-------
ENTROPY
-------

The entropy contributions are T*S = T*(S(el)+S(vib)+S(rot)+S(trans))
     S(el)   - electronic entropy
     S(vib)  - vibrational entropy
     S(rot)  - rotational entropy
     S(trans)- translational entropy
The entropies will be listed as multiplied by the temperature to get
units of energy

Electronic entropy                ...      0.00065446 Eh      0.41 kcal/mol
Vibrational entropy               ...      0.03413684 Eh     21.42 kcal/mol
Rotational entropy                ...      0.01653620 Eh     10.38 kcal/mol
Translational entropy             ...      0.02081341 Eh     13.06 kcal/mol
-----------------------------------------------------------------------
Final entropy term                ...      0.07214091 Eh     45.27 kcal/mol

                             ****ORCA TERMINATED NORMALLY****
TOTAL RUN TIME: 0 days 0 hours 18 minutes 48 seconds 943 msec
