                         Program Version 6.0.1  -  RELEASE   -
|  1> !B3LYP def2-TZVP opt d3 TightSCF SlowConv defgrid2
|  2>
|  3> %pal
|  4> nprocs 20
|  5> end
|  6>
|  7> %scf
|  8> MaxIter 1500
|  9> end
| 10>
| 11> %maxcore 8000
| 12>
| 13> !CPCM
| 14> %cpcm smd true
| 15> SMDsolvent "ACETONITRILE"
| 16> end
| 17>
| 18> * xyz -2 2
| 19> 6        4.790427000     -0.033865800     -0.529943200
| 20> 8        5.449345000     -1.206924000     -0.894594600
| 21> 8        4.978223000      1.323071000     -0.737377200
| 22> 6        3.506687600     -0.338741600      0.376153800
| 23> 6        2.222300000      0.400524800     -0.110681600
| 24> 6        0.900506800     -0.386389800      0.175703000
| 25> 6       -0.395261200      0.487294000      0.065549000
| 26> 6       -1.705693600     -0.364773800     -0.068373600
| 27> 6       -3.005136200      0.445344800      0.258164000
| 28> 6       -4.319880200     -0.214526000     -0.270540800
| 29> 9        3.211587400     -1.692050400      0.412735200
| 30> 9        3.741061800      0.055285800      1.689948800
| 31> 9        2.125696800      1.616867800      0.483236600
| 32> 9        2.314152400      0.589704000     -1.455769200
| 33> 9        0.794028800     -1.413561400     -0.700839000
| 34> 9        0.958350600     -0.884509000      1.435093400
| 35> 9       -0.498373400      1.260265600      1.173340200
| 36> 9       -0.299075000      1.289512600     -1.020910800
| 37> 9       -1.641790400     -1.418189000      0.779523800
| 38> 9       -1.792381400     -0.831391600     -1.336863600
| 39> 9       -2.918792200      1.679227200     -0.295171200
| 40> 9       -3.119771000      0.573779800      1.598579800
| 41> 9       -4.383115600     -1.504377600      0.089127600
| 42> 9       -5.365669800      0.430528600      0.260394200
| 43> 9       -4.396020400     -0.128550600     -1.602941800
| 44> *
| 45>
| 46>                          ****END OF INPUT****
 Total Charge           Charge          ....   -2
 Multiplicity           Mult            ....    2
 Number of Electrons    NEL             ....  201
Dispersion correction           -0.043956915
FINAL SINGLE POINT ENERGY     -1953.162581085181
Dispersion correction             ... done (  0.0 sec)
Dispersion correction           -0.043791048
FINAL SINGLE POINT ENERGY     -1953.195986693968
Dispersion correction             ... done (  0.0 sec)
Dispersion correction           -0.043375685
FINAL SINGLE POINT ENERGY     -1953.217243034389
Dispersion correction             ... done (  0.0 sec)
FINAL SINGLE POINT ENERGY     -1953.223758295371
FINAL SINGLE POINT ENERGY     -1953.228737149242
FINAL SINGLE POINT ENERGY     -1953.230356072416
FINAL SINGLE POINT ENERGY     -1953.231748812806
FINAL SINGLE POINT ENERGY     -1953.233063629136
FINAL SINGLE POINT ENERGY     -1953.233808592383
FINAL SINGLE POINT ENERGY     -1953.234322870532
FINAL SINGLE POINT ENERGY     -1953.234432107472
FINAL SINGLE POINT ENERGY     -1953.234499251392
Dispersion correction             ... done (  0.0 sec)
Dispersion correction           -0.042546710
FINAL SINGLE POINT ENERGY     -1953.234507934141
Dispersion correction             ... done (  0.0 sec)
Dispersion correction           -0.042543330
FINAL SINGLE POINT ENERGY     -1953.234512625410
Dispersion correction             ... done (  0.0 sec)
                    ***********************HURRAY********************

CARTESIAN COORDINATES (ANGSTROEM)
---------------------------------
  C      4.989898    0.212776   -0.279300
  O      5.465404   -0.255868   -1.326046
  O      5.359603    1.166111    0.428361
  C      3.677995   -0.494573    0.240850
  C      2.378966    0.309871   -0.061942
  C      0.996908   -0.416423    0.037366
  C     -0.360875    0.362783    0.025894
  C     -1.821221   -0.243269   -0.012516
  C     -3.198645    0.498754   -0.013022
  C     -4.569779   -0.214722   -0.044465
  F      3.534380   -1.742303   -0.309015
  F      3.740831   -0.689004    1.597847
  F      2.350089    1.375660    0.789860
  F      2.485610    0.802423   -1.331875
  F      0.946150   -1.292724   -1.019841
  F      1.016390   -1.144521    1.202272
  F     -0.341547    1.156880    1.160848
  F     -0.293688    1.178160   -1.100641
  F     -1.879339   -1.067734    1.113884
  F     -1.851129   -1.027261   -1.161021
  F     -3.202673    1.320008   -1.120904
  F     -3.229351    1.279504    1.121763
  F     -4.715486   -1.012585    1.026044
  F     -5.638979    0.637646   -0.039177
  F     -4.688108   -0.966034   -1.151680

 Multiplicity           Mult            ....    2
 Number of Electrons    NEL             ....  201
 Basis Dimension        Dim             ....  775

ORBITAL ENERGIES
----------------
                 SPIN UP ORBITALS
  NO   OCC          E(Eh)            E(eV)
   0   1.0000     -24.718297      -672.6191
   1   1.0000     -24.718255      -672.6179
   2   1.0000     -24.709655      -672.3839
   3   1.0000     -24.699188      -672.0991
   4   1.0000     -24.698147      -672.0707
   5   1.0000     -24.697776      -672.0606
   6   1.0000     -24.696571      -672.0279
   7   1.0000     -24.694884      -671.9820
   8   1.0000     -24.692667      -671.9216
   9   1.0000     -24.683732      -671.6785
  10   1.0000     -24.683601      -671.6749
  11   1.0000     -24.683458      -671.6710
  12   1.0000     -24.682677      -671.6498
  13   1.0000     -24.682504      -671.6451
  14   1.0000     -24.681977      -671.6307
  15   1.0000     -19.051038      -518.4051
  16   1.0000     -19.049795      -518.3713
  17   1.0000     -10.424041      -283.6526
  18   1.0000     -10.351209      -281.6707
  19   1.0000     -10.350925      -281.6630
  20   1.0000     -10.346747      -281.5493
  21   1.0000     -10.334505      -281.2162
  22   1.0000     -10.334343      -281.2118
  23   1.0000     -10.326673      -281.0031
  24   1.0000     -10.243393      -278.7369
  25   1.0000      -1.317356       -35.8471
  26   1.0000      -1.274540       -34.6820
  27   1.0000      -1.261869       -34.3372
  28   1.0000      -1.254783       -34.1444
  29   1.0000      -1.245277       -33.8857
  30   1.0000      -1.241607       -33.7859
  31   1.0000      -1.234504       -33.5926
  32   1.0000      -1.231133       -33.5008
  33   1.0000      -1.221963       -33.2513
  34   1.0000      -1.212325       -32.9890
  35   1.0000      -1.207090       -32.8466
  36   1.0000      -1.201103       -32.6837
  37   1.0000      -1.192084       -32.4383
  38   1.0000      -1.188322       -32.3359
  39   1.0000      -1.184667       -32.2364
  40   1.0000      -1.013455       -27.5775
  41   1.0000      -0.929949       -25.3052
  42   1.0000      -0.789674       -21.4881
  43   1.0000      -0.784223       -21.3398
  44   1.0000      -0.754676       -20.5358
  45   1.0000      -0.723499       -19.6874
  46   1.0000      -0.685962       -18.6660
  47   1.0000      -0.655218       -17.8294
  48   1.0000      -0.632683       -17.2162
  49   1.0000      -0.603673       -16.4268
  50   1.0000      -0.601736       -16.3741
  51   1.0000      -0.599744       -16.3199
  52   1.0000      -0.587838       -15.9959
  53   1.0000      -0.583050       -15.8656
  54   1.0000      -0.579809       -15.7774
  55   1.0000      -0.566610       -15.4182
  56   1.0000      -0.564042       -15.3484
  57   1.0000      -0.555950       -15.1282
  58   1.0000      -0.554192       -15.0803
  59   1.0000      -0.546327       -14.8663
  60   1.0000      -0.540004       -14.6943
  61   1.0000      -0.536317       -14.5939
  62   1.0000      -0.530546       -14.4369
  63   1.0000      -0.521706       -14.1963
  64   1.0000      -0.476635       -12.9699
  65   1.0000      -0.476479       -12.9656
  66   1.0000      -0.470255       -12.7963
  67   1.0000      -0.460921       -12.5423
  68   1.0000      -0.458740       -12.4830
  69   1.0000      -0.455050       -12.3826
  70   1.0000      -0.450946       -12.2709
  71   1.0000      -0.448956       -12.2167
  72   1.0000      -0.445938       -12.1346
  73   1.0000      -0.444972       -12.1083
  74   1.0000      -0.441556       -12.0154
  75   1.0000      -0.438881       -11.9426
  76   1.0000      -0.436348       -11.8736
  77   1.0000      -0.430141       -11.7047
  78   1.0000      -0.429131       -11.6772
  79   1.0000      -0.423194       -11.5157
  80   1.0000      -0.417828       -11.3697
  81   1.0000      -0.417414       -11.3584
  82   1.0000      -0.416685       -11.3386
  83   1.0000      -0.408856       -11.1255
  84   1.0000      -0.407098       -11.0777
  85   1.0000      -0.405603       -11.0370
  86   1.0000      -0.402114       -10.9421
  87   1.0000      -0.396795       -10.7974
  88   1.0000      -0.395939       -10.7740
  89   1.0000      -0.395505       -10.7622
  90   1.0000      -0.390307       -10.6208
  91   1.0000      -0.387591       -10.5469
  92   1.0000      -0.379115       -10.3162
  93   1.0000      -0.374360       -10.1869
  94   1.0000      -0.368969       -10.0401
  95   1.0000      -0.346373        -9.4253
  96   1.0000      -0.315633        -8.5888
  97   1.0000      -0.241055        -6.5594
  98   1.0000      -0.230133        -6.2622
  99   1.0000      -0.226406        -6.1608
 100   1.0000      -0.074587        -2.0296
 101   0.0000       0.029840         0.8120
 102   0.0000       0.046253         1.2586
 103   0.0000       0.059804         1.6274
 104   0.0000       0.077165         2.0998
 105   0.0000       0.101967         2.7747

                 SPIN DOWN ORBITALS
  NO   OCC          E(Eh)            E(eV)
   0   1.0000     -24.718228      -672.6172
   1   1.0000     -24.718183      -672.6160
   2   1.0000     -24.708395      -672.3496
   3   1.0000     -24.699114      -672.0971
   4   1.0000     -24.697670      -672.0578
   5   1.0000     -24.697271      -672.0469
   6   1.0000     -24.696414      -672.0236
   7   1.0000     -24.694586      -671.9738
   8   1.0000     -24.692312      -671.9120
   9   1.0000     -24.683559      -671.6738
  10   1.0000     -24.683119      -671.6618
  11   1.0000     -24.682723      -671.6510
  12   1.0000     -24.682429      -671.6430
  13   1.0000     -24.682002      -671.6314
  14   1.0000     -24.681170      -671.6088
  15   1.0000     -19.050886      -518.4010
  16   1.0000     -19.049669      -518.3678
  17   1.0000     -10.422460      -283.6096
  18   1.0000     -10.349910      -281.6354
  19   1.0000     -10.348809      -281.6054
  20   1.0000     -10.344699      -281.4936
  21   1.0000     -10.330995      -281.1207
  22   1.0000     -10.330698      -281.1126
  23   1.0000     -10.326250      -280.9915
  24   1.0000     -10.243267      -278.7335
  25   1.0000      -1.316265       -35.8174
  26   1.0000      -1.273639       -34.6575
  27   1.0000      -1.260119       -34.2896
  28   1.0000      -1.253723       -34.1155
  29   1.0000      -1.244968       -33.8773
  30   1.0000      -1.239897       -33.7393
  31   1.0000      -1.234277       -33.5864
  32   1.0000      -1.229196       -33.4481
  33   1.0000      -1.219782       -33.1920
  34   1.0000      -1.211795       -32.9746
  35   1.0000      -1.205959       -32.8158
  36   1.0000      -1.200401       -32.6646
  37   1.0000      -1.190695       -32.4004
  38   1.0000      -1.188129       -32.3306
  39   1.0000      -1.183125       -32.1945
  40   1.0000      -1.013163       -27.5696
  41   1.0000      -0.929655       -25.2972
  42   1.0000      -0.782152       -21.2834
  43   1.0000      -0.777367       -21.1532
  44   1.0000      -0.746910       -20.3244
  45   1.0000      -0.717250       -19.5174
  46   1.0000      -0.682154       -18.5624
  47   1.0000      -0.652777       -17.7630
  48   1.0000      -0.630639       -17.1606
  49   1.0000      -0.602852       -16.4044
  50   1.0000      -0.598411       -16.2836
  51   1.0000      -0.595837       -16.2136
  52   1.0000      -0.585760       -15.9393
  53   1.0000      -0.580045       -15.7838
  54   1.0000      -0.578382       -15.7386
  55   1.0000      -0.564934       -15.3726
  56   1.0000      -0.560170       -15.2430
  57   1.0000      -0.554066       -15.0769
  58   1.0000      -0.551002       -14.9935
  59   1.0000      -0.544688       -14.8217
  60   1.0000      -0.538912       -14.6645
  61   1.0000      -0.531769       -14.4702
  62   1.0000      -0.528514       -14.3816
  63   1.0000      -0.520373       -14.1601
  64   1.0000      -0.476126       -12.9560
  65   1.0000      -0.474223       -12.9043
  66   1.0000      -0.469475       -12.7751
  67   1.0000      -0.460363       -12.5271
  68   1.0000      -0.458155       -12.4670
  69   1.0000      -0.454745       -12.3742
  70   1.0000      -0.450510       -12.2590
  71   1.0000      -0.448137       -12.1944
  72   1.0000      -0.445005       -12.1092
  73   1.0000      -0.443994       -12.0817
  74   1.0000      -0.441020       -12.0008
  75   1.0000      -0.437824       -11.9138
  76   1.0000      -0.435539       -11.8516
  77   1.0000      -0.428946       -11.6722
  78   1.0000      -0.427994       -11.6463
  79   1.0000      -0.422632       -11.5004
  80   1.0000      -0.416842       -11.3429
  81   1.0000      -0.416465       -11.3326
  82   1.0000      -0.415807       -11.3147
  83   1.0000      -0.407882       -11.0990
  84   1.0000      -0.405897       -11.0450
  85   1.0000      -0.404948       -11.0192
  86   1.0000      -0.400044       -10.8857
  87   1.0000      -0.395829       -10.7710
  88   1.0000      -0.392808       -10.6889
  89   1.0000      -0.392127       -10.6703
  90   1.0000      -0.389400       -10.5961
  91   1.0000      -0.385079       -10.4785
  92   1.0000      -0.374163       -10.1815
  93   1.0000      -0.372854       -10.1459
  94   1.0000      -0.363589        -9.8938
  95   1.0000      -0.342373        -9.3165
  96   1.0000      -0.312837        -8.5127
  97   1.0000      -0.240366        -6.5407
  98   1.0000      -0.229276        -6.2389
  99   1.0000      -0.226193        -6.1550
 100   0.0000      -0.003115        -0.0848
 101   0.0000       0.038737         1.0541
 102   0.0000       0.052974         1.4415
 103   0.0000       0.066437         1.8078
 104   0.0000       0.085242         2.3195

MULLIKEN ATOMIC CHARGES AND SPIN POPULATIONS
--------------------------------------------
   0 C :    0.139097    0.005819
   1 O :   -0.491182    0.004499
   2 O :   -0.498743    0.004086
   3 C :    0.349299    0.019978
   4 C :    0.285765    0.055034
   5 C :    0.293335    0.132642
   6 C :    0.254048    0.244393
   7 C :    0.224255    0.262418
   8 C :    0.281863    0.150373
   9 C :    0.441346    0.079716
  10 F :   -0.225573    0.000294
  11 F :   -0.230375    0.000350
  12 F :   -0.210632    0.000948
  13 F :   -0.215055    0.000456
  14 F :   -0.220696    0.001440
  15 F :   -0.221956    0.000952
  16 F :   -0.235667    0.003237
  17 F :   -0.241220    0.003542
  18 F :   -0.245155    0.005292
  19 F :   -0.240226    0.004805
  20 F :   -0.218929    0.003270
  21 F :   -0.217988    0.003134
  22 F :   -0.180527   -0.000101
  23 F :   -0.194432    0.013544
  24 F :   -0.180650   -0.000121
Sum of atomic charges         :   -2.0000000

LOEWDIN ATOMIC CHARGES AND SPIN POPULATIONS
-------------------------------------------
   0 C :   -0.695642    0.007304
   1 O :   -0.067572    0.004565
   2 O :   -0.070227    0.003965
   3 C :   -0.438423    0.023459
   4 C :   -0.456482    0.056082
   5 C :   -0.466151    0.124187
   6 C :   -0.472262    0.210050
   7 C :   -0.470344    0.228840
   8 C :   -0.479801    0.154195
   9 C :   -0.652122    0.067160
  10 F :    0.145929    0.001282
  11 F :    0.141347    0.001044
  12 F :    0.173893    0.002764
  13 F :    0.173552    0.001834
  14 F :    0.154358    0.006645
  15 F :    0.156390    0.005810
  16 F :    0.130355    0.012000
  17 F :    0.121381    0.012637
  18 F :    0.113950    0.015124
  19 F :    0.122846    0.014165
  20 F :    0.148363    0.009435
  21 F :    0.150373    0.009000
  22 F :    0.193320    0.001917
  23 F :    0.149836    0.024671
  24 F :    0.193133    0.001866

  Mayer bond orders larger than 0.100000
B(  0-C ,  1-O ) :   1.8867 B(  0-C ,  2-O ) :   1.8773 B(  0-C ,  3-C ) :   0.8459
B(  3-C ,  4-C ) :   0.9056 B(  3-C , 10-F ) :   1.0422 B(  3-C , 11-F ) :   1.0260
B(  4-C ,  5-C ) :   0.8881 B(  4-C , 12-F ) :   1.0551 B(  4-C , 13-F ) :   1.0411
B(  5-C ,  6-C ) :   0.9053 B(  5-C , 14-F ) :   1.0250 B(  5-C , 15-F ) :   1.0255
B(  6-C ,  7-C ) :   0.9175 B(  6-C , 16-F ) :   0.9957 B(  6-C , 17-F ) :   0.9860
B(  7-C ,  8-C ) :   0.9241 B(  7-C , 18-F ) :   0.9818 B(  7-C , 19-F ) :   0.9879
B(  8-C ,  9-C ) :   0.9628 B(  8-C , 20-F ) :   1.0222 B(  8-C , 21-F ) :   1.0226
B(  9-C , 22-F ) :   1.1338 B(  9-C , 23-F ) :   1.0825 B(  9-C , 24-F ) :   1.1331

Dispersion correction           -0.042540877
FINAL SINGLE POINT ENERGY     -1953.234513804677

DIPOLE MOMENT
-------------

Method             : SCF
Type of density    : Electron Density
Multiplicity       :   2
Irrep              :   0
Energy             : -1953.1919729274763995 Eh
Relativity type    :
Basis              : AO
                                X                 Y                 Z
Electronic contribution:    -17.580779200      -1.624577252       1.346422010
Nuclear contribution   :     10.215868114       0.852610083      -0.763381339
                        -----------------------------------------
Total Dipole Moment    :     -7.364911086      -0.771967169       0.583040671
                        -----------------------------------------
Magnitude (a.u.)       :      7.428175082
Magnitude (Debye)      :     18.880920566

Rotational constants in cm-1:             0.021730             0.003375             0.003347
Rotational constants in MHz :           651.455334           101.183285           100.331392

                             ****ORCA TERMINATED NORMALLY****
TOTAL RUN TIME: 0 days 0 hours 25 minutes 0 seconds 504 msec
