                         Program Version 6.0.1  -  RELEASE   -
|  1> !B3LYP def2-TZVP opt d3 TightSCF SlowConv defgrid2
|  2>
|  3> %pal
|  4> nprocs 20
|  5> end
|  6>
|  7> %scf
|  8> MaxIter 1500
|  9> end
| 10>
| 11> %maxcore 8000
| 12>
| 13> !CPCM
| 14> %cpcm smd true
| 15> SMDsolvent "ACETONITRILE"
| 16> end
| 17>
| 18> * xyz -1 2
| 19> 6        6.857280945     27.901753127      3.100719684
| 20> 6        6.154044945     26.704598127      2.411135684
| 21> 6        7.086539945     25.482838127      2.185613684
| 22> 6        6.299616945     24.171731127      1.900070684
| 23> 6        7.185881945     23.070259127      1.248991684
| 24> 6        6.565390945     21.647303127      1.360366684
| 25> 6        7.185681945     20.616666127      0.394672684
| 26> 6        6.843394945     19.121603127      0.784430684
| 27> 9        8.006806945     28.182557127      2.503585684
| 28> 9        7.082780945     27.647576127      4.378925684
| 29> 9        6.067588945     28.966668127      3.018348684
| 30> 9        5.116418945     26.361022127      3.182510684
| 31> 9        5.702795945     27.135986127      1.230360684
| 32> 9        7.887905945     25.777720127      1.156931684
| 33> 9        7.829891945     25.318192127      3.287321684
| 34> 9        5.806494945     23.745652127      3.066652684
| 35> 9        5.287431945     24.474179127      1.076603684
| 36> 9        7.350609945     23.413929127     -0.034316316
| 37> 9        6.756126945     21.255165127      2.631170684
| 38> 9        5.250981945     21.784657127      1.133608684
| 39> 9        6.706596945     20.903759127     -0.845345316
| 40> 9        8.519170945     20.869305127      0.364163684
| 41> 8        7.813741945     18.363469127      0.789215684
| 42> 8        5.634555945     18.967368127      0.997888684
| 43> 8        2.818390092     18.736599843      1.412612662
| 44> 1        2.716934106     17.791620290      1.243555674
| 45> 1        3.748070901     18.906228277      1.215686974
| 46> *
| 47>
| 48>                          ****END OF INPUT****
 Total Charge           Charge          ....   -1
 Multiplicity           Mult            ....    2
 Number of Electrons    NEL             ....  201
Dispersion correction           -0.044457614
FINAL SINGLE POINT ENERGY     -1929.711774309385
Dispersion correction             ... done (  0.0 sec)
Dispersion correction           -0.043871812
FINAL SINGLE POINT ENERGY     -1929.720789944459
Dispersion correction             ... done (  0.1 sec)
Dispersion correction           -0.043895227
FINAL SINGLE POINT ENERGY     -1929.724423949565
Dispersion correction             ... done (  0.0 sec)
FINAL SINGLE POINT ENERGY     -1929.725979483304
FINAL SINGLE POINT ENERGY     -1929.726901639175
FINAL SINGLE POINT ENERGY     -1929.727886215581
FINAL SINGLE POINT ENERGY     -1929.728630481197
FINAL SINGLE POINT ENERGY     -1929.728926842748
FINAL SINGLE POINT ENERGY     -1929.729083798384
FINAL SINGLE POINT ENERGY     -1929.729253315969
FINAL SINGLE POINT ENERGY     -1929.732050263829
FINAL SINGLE POINT ENERGY     -1929.732059214775
FINAL SINGLE POINT ENERGY     -1929.732063507610
FINAL SINGLE POINT ENERGY     -1929.732068736152
FINAL SINGLE POINT ENERGY     -1929.732072709451
FINAL SINGLE POINT ENERGY     -1929.732075997676
FINAL SINGLE POINT ENERGY     -1929.732081302763
Dispersion correction             ... done (  0.0 sec)
Dispersion correction           -0.045980710
FINAL SINGLE POINT ENERGY     -1929.732083511816
Dispersion correction             ... done (  0.0 sec)
Dispersion correction           -0.045979274
FINAL SINGLE POINT ENERGY     -1929.732085023928
Dispersion correction             ... done (  0.0 sec)
                    ***********************HURRAY********************

CARTESIAN COORDINATES (ANGSTROEM)
---------------------------------
  C      7.924372   27.241875    2.905681
  C      6.616982   26.670678    2.266342
  C      6.683450   25.149310    1.909250
  C      5.296776   24.472529    1.625939
  C      5.403271   23.118049    0.988934
  C      5.576561   21.786483    1.652605
  C      6.769969   20.942864    1.114299
  C      7.111969   19.701215    2.029724
  F      8.989550   26.926978    2.165261
  F      8.097594   26.769459    4.139814
  F      7.825214   28.571839    2.970495
  F      5.611703   26.893346    3.136646
  F      6.377050   27.368859    1.139574
  F      7.445878   25.016524    0.802151
  F      7.274410   24.481549    2.921567
  F      4.619646   24.388043    2.793697
  F      4.608745   25.289628    0.785856
  F      5.458807   23.121480   -0.333315
  F      5.760417   21.976185    2.985022
  F      4.433173   21.050067    1.499619
  F      6.463181   20.545954   -0.156925
  F      7.835630   21.789803    1.007723
  O      8.060369   19.863188    2.800925
  O      6.360877   18.719001    1.857179
  O      4.400020   18.156145   -0.000002
  H      4.221685   18.975745   -0.475572
  H      5.095606   18.401791    0.649493

 Multiplicity           Mult            ....    2
 Number of Electrons    NEL             ....  201
 Basis Dimension        Dim             ....  787

ORBITAL ENERGIES
----------------
                 SPIN UP ORBITALS
  NO   OCC          E(Eh)            E(eV)
   0   1.0000     -24.748582      -673.4431
   1   1.0000     -24.743820      -673.3136
   2   1.0000     -24.742774      -673.2851
   3   1.0000     -24.742106      -673.2669
   4   1.0000     -24.741435      -673.2487
   5   1.0000     -24.740807      -673.2316
   6   1.0000     -24.740161      -673.2140
   7   1.0000     -24.739808      -673.2044
   8   1.0000     -24.732960      -673.0181
   9   1.0000     -24.732521      -673.0061
  10   1.0000     -24.721651      -672.7103
  11   1.0000     -24.714252      -672.5090
  12   1.0000     -24.701936      -672.1738
  13   1.0000     -24.701607      -672.1649
  14   1.0000     -19.084840      -519.3249
  15   1.0000     -19.073753      -519.0232
  16   1.0000     -19.069664      -518.9119
  17   1.0000     -10.459763      -284.6246
  18   1.0000     -10.404966      -283.1335
  19   1.0000     -10.402250      -283.0596
  20   1.0000     -10.401796      -283.0472
  21   1.0000     -10.381297      -282.4895
  22   1.0000     -10.347103      -281.5590
  23   1.0000     -10.317882      -280.7638
  24   1.0000     -10.264435      -279.3095
  25   1.0000      -1.352325       -36.7986
  26   1.0000      -1.322970       -35.9998
  27   1.0000      -1.306933       -35.5635
  28   1.0000      -1.301628       -35.4191
  29   1.0000      -1.291916       -35.1548
  30   1.0000      -1.284050       -34.9408
  31   1.0000      -1.265414       -34.4337
  32   1.0000      -1.264858       -34.4185
  33   1.0000      -1.259273       -34.2666
  34   1.0000      -1.255704       -34.1695
  35   1.0000      -1.248264       -33.9670
  36   1.0000      -1.242129       -33.8000
  37   1.0000      -1.228281       -33.4232
  38   1.0000      -1.208196       -32.8767
  39   1.0000      -1.035734       -28.1838
  40   1.0000      -0.969975       -26.3944
  41   1.0000      -0.951318       -25.8867
  42   1.0000      -0.850661       -23.1477
  43   1.0000      -0.829538       -22.5729
  44   1.0000      -0.792982       -21.5781
  45   1.0000      -0.756812       -20.5939
  46   1.0000      -0.714138       -19.4327
  47   1.0000      -0.690680       -18.7943
  48   1.0000      -0.662077       -18.0160
  49   1.0000      -0.646274       -17.5860
  50   1.0000      -0.642882       -17.4937
  51   1.0000      -0.636024       -17.3071
  52   1.0000      -0.623028       -16.9534
  53   1.0000      -0.618084       -16.8189
  54   1.0000      -0.616083       -16.7645
  55   1.0000      -0.607890       -16.5415
  56   1.0000      -0.603539       -16.4231
  57   1.0000      -0.592482       -16.1223
  58   1.0000      -0.590198       -16.0601
  59   1.0000      -0.580110       -15.7856
  60   1.0000      -0.579297       -15.7635
  61   1.0000      -0.563527       -15.3343
  62   1.0000      -0.552857       -15.0440
  63   1.0000      -0.527174       -14.3451
  64   1.0000      -0.512758       -13.9528
  65   1.0000      -0.507905       -13.8208
  66   1.0000      -0.503361       -13.6971
  67   1.0000      -0.502995       -13.6872
  68   1.0000      -0.498430       -13.5630
  69   1.0000      -0.494934       -13.4678
  70   1.0000      -0.489448       -13.3186
  71   1.0000      -0.485120       -13.2008
  72   1.0000      -0.480434       -13.0733
  73   1.0000      -0.472966       -12.8700
  74   1.0000      -0.471688       -12.8353
  75   1.0000      -0.465851       -12.6765
  76   1.0000      -0.463173       -12.6036
  77   1.0000      -0.462332       -12.5807
  78   1.0000      -0.459490       -12.5034
  79   1.0000      -0.453565       -12.3421
  80   1.0000      -0.451657       -12.2902
  81   1.0000      -0.448130       -12.1942
  82   1.0000      -0.445084       -12.1113
  83   1.0000      -0.442371       -12.0375
  84   1.0000      -0.440384       -11.9835
  85   1.0000      -0.439934       -11.9712
  86   1.0000      -0.432638       -11.7727
  87   1.0000      -0.428738       -11.6666
  88   1.0000      -0.418010       -11.3746
  89   1.0000      -0.415130       -11.2962
  90   1.0000      -0.410360       -11.1665
  91   1.0000      -0.408273       -11.1097
  92   1.0000      -0.394804       -10.7432
  93   1.0000      -0.374338       -10.1863
  94   1.0000      -0.358117        -9.7449
  95   1.0000      -0.352557        -9.5936
  96   1.0000      -0.282743        -7.6938
  97   1.0000      -0.267231        -7.2717
  98   1.0000      -0.260189        -7.0801
  99   1.0000      -0.250464        -6.8155
 100   1.0000      -0.244106        -6.6425
 101   0.0000      -0.000505        -0.0137
 102   0.0000       0.020942         0.5699
 103   0.0000       0.024651         0.6708
 104   0.0000       0.050663         1.3786
 105   0.0000       0.063085         1.7166

                 SPIN DOWN ORBITALS
  NO   OCC          E(Eh)            E(eV)
   0   1.0000     -24.744164      -673.3229
   1   1.0000     -24.743822      -673.3136
   2   1.0000     -24.742773      -673.2851
   3   1.0000     -24.742070      -673.2660
   4   1.0000     -24.741438      -673.2488
   5   1.0000     -24.740772      -673.2306
   6   1.0000     -24.740153      -673.2138
   7   1.0000     -24.739774      -673.2035
   8   1.0000     -24.732475      -673.0049
   9   1.0000     -24.732010      -672.9922
  10   1.0000     -24.721502      -672.7063
  11   1.0000     -24.712924      -672.4729
  12   1.0000     -24.701821      -672.1707
  13   1.0000     -24.701549      -672.1633
  14   1.0000     -19.084837      -519.3248
  15   1.0000     -19.073718      -519.0223
  16   1.0000     -19.069525      -518.9081
  17   1.0000     -10.459707      -284.6231
  18   1.0000     -10.404834      -283.1299
  19   1.0000     -10.402708      -283.0721
  20   1.0000     -10.401490      -283.0389
  21   1.0000     -10.382098      -282.5113
  22   1.0000     -10.346678      -281.5474
  23   1.0000     -10.303518      -280.3730
  24   1.0000     -10.264404      -279.3086
  25   1.0000      -1.352279       -36.7974
  26   1.0000      -1.322430       -35.9852
  27   1.0000      -1.306319       -35.5467
  28   1.0000      -1.299816       -35.3698
  29   1.0000      -1.289583       -35.0913
  30   1.0000      -1.277233       -34.7553
  31   1.0000      -1.264953       -34.4211
  32   1.0000      -1.264790       -34.4167
  33   1.0000      -1.259221       -34.2651
  34   1.0000      -1.255484       -34.1634
  35   1.0000      -1.248153       -33.9640
  36   1.0000      -1.241024       -33.7700
  37   1.0000      -1.226395       -33.3719
  38   1.0000      -1.207881       -32.8681
  39   1.0000      -1.035561       -28.1791
  40   1.0000      -0.969954       -26.3938
  41   1.0000      -0.951132       -25.8816
  42   1.0000      -0.842633       -22.9292
  43   1.0000      -0.820992       -22.3403
  44   1.0000      -0.791145       -21.5281
  45   1.0000      -0.751075       -20.4378
  46   1.0000      -0.710458       -19.3325
  47   1.0000      -0.689638       -18.7660
  48   1.0000      -0.658141       -17.9089
  49   1.0000      -0.644871       -17.5478
  50   1.0000      -0.641428       -17.4542
  51   1.0000      -0.635890       -17.3035
  52   1.0000      -0.621440       -16.9102
  53   1.0000      -0.616732       -16.7821
  54   1.0000      -0.612737       -16.6734
  55   1.0000      -0.606499       -16.5037
  56   1.0000      -0.602026       -16.3820
  57   1.0000      -0.589588       -16.0435
  58   1.0000      -0.588650       -16.0180
  59   1.0000      -0.579186       -15.7605
  60   1.0000      -0.577781       -15.7222
  61   1.0000      -0.561413       -15.2768
  62   1.0000      -0.551420       -15.0049
  63   1.0000      -0.512666       -13.9503
  64   1.0000      -0.508216       -13.8293
  65   1.0000      -0.504451       -13.7268
  66   1.0000      -0.503161       -13.6917
  67   1.0000      -0.499216       -13.5844
  68   1.0000      -0.497276       -13.5316
  69   1.0000      -0.494479       -13.4554
  70   1.0000      -0.486812       -13.2468
  71   1.0000      -0.483914       -13.1680
  72   1.0000      -0.479262       -13.0414
  73   1.0000      -0.471961       -12.8427
  74   1.0000      -0.470627       -12.8064
  75   1.0000      -0.464911       -12.6509
  76   1.0000      -0.462254       -12.5786
  77   1.0000      -0.460210       -12.5229
  78   1.0000      -0.458091       -12.4653
  79   1.0000      -0.451684       -12.2909
  80   1.0000      -0.451470       -12.2851
  81   1.0000      -0.447838       -12.1863
  82   1.0000      -0.443832       -12.0773
  83   1.0000      -0.441365       -12.0101
  84   1.0000      -0.439915       -11.9707
  85   1.0000      -0.439206       -11.9514
  86   1.0000      -0.431716       -11.7476
  87   1.0000      -0.427445       -11.6314
  88   1.0000      -0.416526       -11.3342
  89   1.0000      -0.414710       -11.2848
  90   1.0000      -0.410171       -11.1613
  91   1.0000      -0.406128       -11.0513
  92   1.0000      -0.394491       -10.7346
  93   1.0000      -0.371492       -10.1088
  94   1.0000      -0.356812        -9.7093
  95   1.0000      -0.351128        -9.5547
  96   1.0000      -0.282685        -7.6923
  97   1.0000      -0.259997        -7.0749
  98   1.0000      -0.251248        -6.8368
  99   1.0000      -0.245749        -6.6872
 100   0.0000      -0.121393        -3.3033
 101   0.0000       0.001881         0.0512
 102   0.0000       0.025318         0.6889
 103   0.0000       0.026624         0.7245
 104   0.0000       0.054354         1.4791

MULLIKEN ATOMIC CHARGES AND SPIN POPULATIONS
--------------------------------------------
   0 C :    0.476643    0.002363
   1 C :    0.327482    0.004821
   2 C :    0.302539    0.032522
   3 C :    0.391425   -0.019598
   4 C :    0.102804    0.833075
   5 C :    0.351628   -0.004496
   6 C :    0.336233    0.010114
   7 C :    0.198754    0.000369
   8 F :   -0.155700   -0.000027
   9 F :   -0.153515    0.000041
  10 F :   -0.153986    0.000687
  11 F :   -0.166907   -0.000047
  12 F :   -0.165487    0.000218
  13 F :   -0.178298    0.000378
  14 F :   -0.177632    0.000634
  15 F :   -0.172123    0.008475
  16 F :   -0.178120    0.008735
  17 F :   -0.150149    0.084883
  18 F :   -0.194499    0.002882
  19 F :   -0.194743    0.024520
  20 F :   -0.215802    0.002415
  21 F :   -0.213134    0.000789
  22 O :   -0.454078    0.004792
  23 O :   -0.511578    0.001343
  24 O :   -0.726519    0.000072
  25 H :    0.324892   -0.000069
  26 H :    0.349871    0.000107
Sum of atomic charges         :   -1.0000000

LOEWDIN ATOMIC CHARGES AND SPIN POPULATIONS
-------------------------------------------
   0 C :   -0.663466    0.001734
   1 C :   -0.462089    0.006136
   2 C :   -0.453588    0.025718
   3 C :   -0.476538    0.066756
   4 C :   -0.163250    0.652881
   5 C :   -0.473394    0.057584
   6 C :   -0.432088    0.013815
   7 C :   -0.667796    0.002123
   8 F :    0.224774   -0.000040
   9 F :    0.226002    0.000055
  10 F :    0.223783    0.000806
  11 F :    0.221684   -0.000043
  12 F :    0.221211    0.000260
  13 F :    0.219741    0.001048
  14 F :    0.222625    0.001025
  15 F :    0.213205    0.010045
  16 F :    0.206606    0.009383
  17 F :    0.257220    0.109350
  18 F :    0.203654    0.003698
  19 F :    0.181843    0.027538
  20 F :    0.162785    0.002909
  21 F :    0.167723    0.001487
  22 O :   -0.028233    0.004449
  23 O :   -0.049279    0.001185
  24 O :   -0.367344    0.000080
  25 H :    0.148940   -0.000004
  26 H :    0.135269    0.000024

  Mayer bond orders larger than 0.100000
B(  0-C ,  1-C ) :   0.9648 B(  0-C ,  8-F ) :   1.1449 B(  0-C ,  9-F ) :   1.1541
B(  0-C , 10-F ) :   1.1460 B(  1-C ,  2-C ) :   0.9117 B(  1-C , 11-F ) :   1.0903
B(  1-C , 12-F ) :   1.0959 B(  2-C ,  3-C ) :   0.9139 B(  2-C , 13-F ) :   1.0599
B(  2-C , 14-F ) :   1.0706 B(  3-C ,  4-C ) :   1.0266 B(  3-C , 15-F ) :   1.0979
B(  3-C , 16-F ) :   1.0709 B(  4-C ,  5-C ) :   1.0121 B(  4-C , 17-F ) :   1.1237
B(  5-C ,  6-C ) :   0.8966 B(  5-C , 18-F ) :   1.0556 B(  5-C , 19-F ) :   1.0553
B(  6-C ,  7-C ) :   0.8634 B(  6-C , 20-F ) :   1.0224 B(  6-C , 21-F ) :   1.0409
B(  7-C , 22-O ) :   1.9334 B(  7-C , 23-O ) :   1.7046 B( 23-O , 26-H ) :   0.1191
B( 24-O , 25-H ) :   0.9044 B( 24-O , 26-H ) :   0.8276

Dispersion correction           -0.045979334
FINAL SINGLE POINT ENERGY     -1929.732085201511

DIPOLE MOMENT
-------------

Method             : SCF
Type of density    : Electron Density
Multiplicity       :   2
Irrep              :   0
Energy             : -1929.6861058672971012 Eh
Relativity type    :
Basis              : AO
                                X                 Y                 Z
Electronic contribution:      3.520821911      29.744621683       3.573110247
Nuclear contribution   :     -3.971462927     -21.381803193      -3.880365537
                        -----------------------------------------
Total Dipole Moment    :     -0.450641015       8.362818490      -0.307255291
                        -----------------------------------------
Magnitude (a.u.)       :      8.380585673
Magnitude (Debye)      :     21.301755903

Rotational constants in cm-1:             0.015963             0.004000             0.003717
Rotational constants in MHz :           478.556758           119.918711           111.431948

                             ****ORCA TERMINATED NORMALLY****
TOTAL RUN TIME: 0 days 1 hours 4 minutes 9 seconds 293 msec
