                         Program Version 6.0.1  -  RELEASE   -
|  1> !r2scanh def2-TZVP opt d3 TightSCF SlowConv defgrid2
|  2>
|  3> %pal
|  4> nprocs 20
|  5> end
|  6>
|  7> %scf
|  8> MaxIter 1500
|  9> end
| 10>
| 11> %maxcore 8000 #verificar
| 12>
| 13> !CPCM
| 14> %cpcm smd true
| 15> SMDsolvent "ACETONITRILE"
| 16> end
| 17>
| 18> * xyz -1 2
| 19> 6        4.790427000     -0.033865800     -0.529943200
| 20> 8        5.449345000     -1.206924000     -0.894594600
| 21> 8        4.978223000      1.323071000     -0.737377200
| 22> 6        3.506687600     -0.338741600      0.376153800
| 23> 6        2.222300000      0.400524800     -0.110681600
| 24> 6        0.900506800     -0.386389800      0.175703000
| 25> 6       -0.395261200      0.487294000      0.065549000
| 26> 6       -1.705693600     -0.364773800     -0.068373600
| 27> 6       -3.005136200      0.445344800      0.258164000
| 28> 6       -4.319880200     -0.214526000     -0.270540800
| 29> 9        3.211587400     -1.692050400      0.412735200
| 30> 9        3.741061800      0.055285800      1.689948800
| 31> 9        2.125696800      1.616867800      0.483236600
| 32> 9        2.314152400      0.589704000     -1.455769200
| 33> 9        0.794028800     -1.413561400     -0.700839000
| 34> 9        0.958350600     -0.884509000      1.435093400
| 35> 9       -0.498373400      1.260265600      1.173340200
| 36> 9       -1.641790400     -1.418189000      0.779523800
| 37> 9       -1.792381400     -0.831391600     -1.336863600
| 38> 9       -2.918792200      1.679227200     -0.295171200
| 39> 9       -3.119771000      0.573779800      1.598579800
| 40> 9       -4.383115600     -1.504377600      0.089127600
| 41> 9       -5.365669800      0.430528600      0.260394200
| 42> 9       -4.396020400     -0.128550600     -1.602941800
| 43> *
| 44>
| 45>                          ****END OF INPUT****
 Total Charge           Charge          ....   -1
 Multiplicity           Mult            ....    2
 Number of Electrons    NEL             ....  191
Dispersion correction           -0.007869884
FINAL SINGLE POINT ENERGY     -1853.048543851494
Dispersion correction             ... done (  0.0 sec)
Dispersion correction           -0.007924824
FINAL SINGLE POINT ENERGY     -1853.097518223582
Dispersion correction             ... done (  0.0 sec)
Dispersion correction           -0.007958867
FINAL SINGLE POINT ENERGY     -1853.107561278200
Dispersion correction             ... done (  0.0 sec)
FINAL SINGLE POINT ENERGY     -1853.112616300064
FINAL SINGLE POINT ENERGY     -1853.111850445625
FINAL SINGLE POINT ENERGY     -1853.114982000735
FINAL SINGLE POINT ENERGY     -1853.115789497530
FINAL SINGLE POINT ENERGY     -1853.116227220105
FINAL SINGLE POINT ENERGY     -1853.116598837201
FINAL SINGLE POINT ENERGY     -1853.116425186417
FINAL SINGLE POINT ENERGY     -1853.116836218269
FINAL SINGLE POINT ENERGY     -1853.116866392614
FINAL SINGLE POINT ENERGY     -1853.116876468897
FINAL SINGLE POINT ENERGY     -1853.116883550641
Dispersion correction             ... done (  0.0 sec)
Dispersion correction           -0.008090962
FINAL SINGLE POINT ENERGY     -1853.116885971485
Dispersion correction             ... done (  0.1 sec)
Dispersion correction           -0.008091998
FINAL SINGLE POINT ENERGY     -1853.116887136741
Dispersion correction             ... done (  0.0 sec)
                    ***********************HURRAY********************

CARTESIAN COORDINATES (ANGSTROEM)
---------------------------------
  C      4.246079    0.321972   -1.086065
  O      4.730902   -0.540938   -1.824366
  O      4.282903    1.559911   -1.122744
  C      3.416878   -0.224063    0.134531
  C      1.921449    0.151211    0.040923
  C      0.945355   -0.698650    0.901890
  C     -0.425018   -0.102929    0.992377
  C     -1.631300   -0.599856    0.272005
  C     -2.761096    0.463155    0.204617
  C     -3.906614    0.133398   -0.789842
  F      3.492274   -1.576323    0.247076
  F      3.900280    0.284891    1.302081
  F      1.750121    1.434985    0.414946
  F      1.518591    0.028758   -1.243588
  F      0.845294   -1.935666    0.375232
  F      1.462755   -0.794531    2.148463
  F     -0.604012    0.811518    1.924193
  F     -2.145151   -1.707571    0.869953
  F     -1.293732   -0.953123   -0.986797
  F     -2.233627    1.639597   -0.172351
  F     -3.305224    0.597152    1.423044
  F     -4.394654   -1.081148   -0.569000
  F     -4.879963    1.022637   -0.618289
  F     -3.482009    0.209653   -2.043836

 Multiplicity           Mult            ....    2
 Number of Electrons    NEL             ....  191
 Basis Dimension        Dim             ....  744

ORBITAL ENERGIES
----------------
                 SPIN UP ORBITALS
  NO   OCC          E(Eh)            E(eV)
   0   1.0000     -24.740794      -673.2312
   1   1.0000     -24.730784      -672.9589
   2   1.0000     -24.729623      -672.9273
   3   1.0000     -24.729093      -672.9128
   4   1.0000     -24.728747      -672.9034
   5   1.0000     -24.728495      -672.8966
   6   1.0000     -24.723798      -672.7688
   7   1.0000     -24.717737      -672.6038
   8   1.0000     -24.716760      -672.5772
   9   1.0000     -24.715122      -672.5327
  10   1.0000     -24.709683      -672.3847
  11   1.0000     -24.708748      -672.3592
  12   1.0000     -24.685075      -671.7150
  13   1.0000     -24.684608      -671.7023
  14   1.0000     -19.049304      -518.3579
  15   1.0000     -19.047223      -518.3013
  16   1.0000     -10.438422      -284.0439
  17   1.0000     -10.382277      -282.5161
  18   1.0000     -10.381477      -282.4944
  19   1.0000     -10.372263      -282.2436
  20   1.0000     -10.354927      -281.7719
  21   1.0000     -10.321179      -280.8536
  22   1.0000     -10.304436      -280.3980
  23   1.0000     -10.233120      -278.4573
  24   1.0000      -1.359675       -36.9986
  25   1.0000      -1.323860       -36.0241
  26   1.0000      -1.314338       -35.7650
  27   1.0000      -1.305841       -35.5337
  28   1.0000      -1.297534       -35.3077
  29   1.0000      -1.292064       -35.1589
  30   1.0000      -1.270026       -34.5592
  31   1.0000      -1.268262       -34.5112
  32   1.0000      -1.264634       -34.4124
  33   1.0000      -1.257876       -34.2285
  34   1.0000      -1.248356       -33.9695
  35   1.0000      -1.246503       -33.9191
  36   1.0000      -1.236151       -33.6374
  37   1.0000      -1.209563       -32.9139
  38   1.0000      -1.028786       -27.9947
  39   1.0000      -0.944440       -25.6995
  40   1.0000      -0.853476       -23.2243
  41   1.0000      -0.820796       -22.3350
  42   1.0000      -0.789917       -21.4947
  43   1.0000      -0.750934       -20.4340
  44   1.0000      -0.704119       -19.1601
  45   1.0000      -0.677688       -18.4408
  46   1.0000      -0.654257       -17.8032
  47   1.0000      -0.636467       -17.3191
  48   1.0000      -0.629654       -17.1337
  49   1.0000      -0.625704       -17.0263
  50   1.0000      -0.608974       -16.5710
  51   1.0000      -0.606265       -16.4973
  52   1.0000      -0.602943       -16.4069
  53   1.0000      -0.597064       -16.2469
  54   1.0000      -0.594240       -16.1701
  55   1.0000      -0.582595       -15.8532
  56   1.0000      -0.573765       -15.6129
  57   1.0000      -0.564497       -15.3608
  58   1.0000      -0.562637       -15.3101
  59   1.0000      -0.555489       -15.1156
  60   1.0000      -0.538210       -14.6454
  61   1.0000      -0.519499       -14.1363
  62   1.0000      -0.500056       -13.6072
  63   1.0000      -0.492605       -13.4045
  64   1.0000      -0.487639       -13.2693
  65   1.0000      -0.481876       -13.1125
  66   1.0000      -0.473260       -12.8781
  67   1.0000      -0.472602       -12.8601
  68   1.0000      -0.468457       -12.7474
  69   1.0000      -0.463682       -12.6174
  70   1.0000      -0.461958       -12.5705
  71   1.0000      -0.459221       -12.4960
  72   1.0000      -0.450873       -12.2689
  73   1.0000      -0.448246       -12.1974
  74   1.0000      -0.447545       -12.1783
  75   1.0000      -0.443989       -12.0816
  76   1.0000      -0.440672       -11.9913
  77   1.0000      -0.435183       -11.8419
  78   1.0000      -0.432003       -11.7554
  79   1.0000      -0.428104       -11.6493
  80   1.0000      -0.426206       -11.5976
  81   1.0000      -0.424010       -11.5379
  82   1.0000      -0.419710       -11.4209
  83   1.0000      -0.416362       -11.3298
  84   1.0000      -0.412043       -11.2122
  85   1.0000      -0.403111       -10.9692
  86   1.0000      -0.396470       -10.7885
  87   1.0000      -0.388715       -10.5775
  88   1.0000      -0.385599       -10.4927
  89   1.0000      -0.375067       -10.2061
  90   1.0000      -0.356494        -9.7007
  91   1.0000      -0.334160        -9.0930
  92   1.0000      -0.264384        -7.1942
  93   1.0000      -0.241510        -6.5718
  94   1.0000      -0.225028        -6.1233
  95   1.0000      -0.222488        -6.0542
  96   0.0000      -0.007304        -0.1988
  97   0.0000       0.015791         0.4297
  98   0.0000       0.032557         0.8859
  99   0.0000       0.050891         1.3848
 100   0.0000       0.062320         1.6958

                 SPIN DOWN ORBITALS
  NO   OCC          E(Eh)            E(eV)
   0   1.0000     -24.735659      -673.0915
   1   1.0000     -24.730782      -672.9588
   2   1.0000     -24.729623      -672.9273
   3   1.0000     -24.729017      -672.9108
   4   1.0000     -24.728740      -672.9032
   5   1.0000     -24.728414      -672.8943
   6   1.0000     -24.723170      -672.7517
   7   1.0000     -24.716378      -672.5668
   8   1.0000     -24.715724      -672.5491
   9   1.0000     -24.714262      -672.5093
  10   1.0000     -24.709666      -672.3842
  11   1.0000     -24.708714      -672.3583
  12   1.0000     -24.685053      -671.7144
  13   1.0000     -24.684615      -671.7025
  14   1.0000     -19.049163      -518.3541
  15   1.0000     -19.047195      -518.3005
  16   1.0000     -10.438428      -284.0441
  17   1.0000     -10.383158      -282.5401
  18   1.0000     -10.381361      -282.4912
  19   1.0000     -10.373353      -282.2733
  20   1.0000     -10.354275      -281.7542
  21   1.0000     -10.321040      -280.8498
  22   1.0000     -10.287393      -279.9342
  23   1.0000     -10.233087      -278.4565
  24   1.0000      -1.359631       -36.9974
  25   1.0000      -1.322461       -35.9860
  26   1.0000      -1.312928       -35.7266
  27   1.0000      -1.304392       -35.4943
  28   1.0000      -1.293534       -35.1989
  29   1.0000      -1.287445       -35.0331
  30   1.0000      -1.269899       -34.5557
  31   1.0000      -1.268208       -34.5097
  32   1.0000      -1.264608       -34.4117
  33   1.0000      -1.257581       -34.2205
  34   1.0000      -1.247052       -33.9340
  35   1.0000      -1.243967       -33.8501
  36   1.0000      -1.235772       -33.6271
  37   1.0000      -1.209544       -32.9134
  38   1.0000      -1.028648       -27.9909
  39   1.0000      -0.944274       -25.6950
  40   1.0000      -0.839665       -22.8484
  41   1.0000      -0.816873       -22.2282
  42   1.0000      -0.782897       -21.3037
  43   1.0000      -0.749054       -20.3828
  44   1.0000      -0.699724       -19.0405
  45   1.0000      -0.674386       -18.3510
  46   1.0000      -0.650340       -17.6967
  47   1.0000      -0.635860       -17.3026
  48   1.0000      -0.628158       -17.0930
  49   1.0000      -0.625295       -17.0151
  50   1.0000      -0.607525       -16.5316
  51   1.0000      -0.602519       -16.3954
  52   1.0000      -0.599435       -16.3115
  53   1.0000      -0.595802       -16.2126
  54   1.0000      -0.593110       -16.1393
  55   1.0000      -0.581125       -15.8132
  56   1.0000      -0.570764       -15.5313
  57   1.0000      -0.562613       -15.3095
  58   1.0000      -0.561007       -15.2658
  59   1.0000      -0.554148       -15.0791
  60   1.0000      -0.538070       -14.6416
  61   1.0000      -0.500547       -13.6206
  62   1.0000      -0.492190       -13.3932
  63   1.0000      -0.489714       -13.3258
  64   1.0000      -0.486768       -13.2456
  65   1.0000      -0.480863       -13.0849
  66   1.0000      -0.472132       -12.8474
  67   1.0000      -0.470756       -12.8099
  68   1.0000      -0.467483       -12.7209
  69   1.0000      -0.461094       -12.5470
  70   1.0000      -0.460331       -12.5263
  71   1.0000      -0.458431       -12.4745
  72   1.0000      -0.449083       -12.2202
  73   1.0000      -0.447731       -12.1834
  74   1.0000      -0.446863       -12.1598
  75   1.0000      -0.441009       -12.0005
  76   1.0000      -0.438561       -11.9339
  77   1.0000      -0.434842       -11.8327
  78   1.0000      -0.430939       -11.7265
  79   1.0000      -0.426953       -11.6180
  80   1.0000      -0.424488       -11.5509
  81   1.0000      -0.423267       -11.5177
  82   1.0000      -0.419215       -11.4074
  83   1.0000      -0.415964       -11.3190
  84   1.0000      -0.410774       -11.1777
  85   1.0000      -0.401884       -10.9358
  86   1.0000      -0.396352       -10.7853
  87   1.0000      -0.388235       -10.5644
  88   1.0000      -0.384205       -10.4548
  89   1.0000      -0.374932       -10.2024
  90   1.0000      -0.354229        -9.6391
  91   1.0000      -0.331327        -9.0159
  92   1.0000      -0.241405        -6.5690
  93   1.0000      -0.225061        -6.1242
  94   1.0000      -0.222989        -6.0678
  95   0.0000      -0.119790        -3.2596
  96   0.0000      -0.004849        -0.1319
  97   0.0000       0.017817         0.4848
  98   0.0000       0.037424         1.0184
  99   0.0000       0.052384         1.4255

MULLIKEN ATOMIC CHARGES AND SPIN POPULATIONS
--------------------------------------------
   0 C :    0.215320    0.001212
   1 O :   -0.509132    0.004331
   2 O :   -0.523804    0.000912
   3 C :    0.338981    0.004305
   4 C :    0.290323    0.026082
   5 C :    0.381386   -0.033156
   6 C :    0.120551    0.844540
   7 C :    0.331481   -0.001279
   8 C :    0.340359   -0.004163
   9 C :    0.470280    0.000077
  10 F :   -0.208398   -0.000065
  11 F :   -0.215078    0.000500
  12 F :   -0.186088    0.000462
  13 F :   -0.192814    0.000433
  14 F :   -0.176730    0.005951
  15 F :   -0.178079    0.014836
  16 F :   -0.148186    0.090110
  17 F :   -0.177634    0.033660
  18 F :   -0.174027    0.008945
  19 F :   -0.166762    0.000778
  20 F :   -0.164386    0.001371
  21 F :   -0.156420    0.000032
  22 F :   -0.155966    0.000121
  23 F :   -0.155175    0.000007
Sum of atomic charges         :   -1.0000000

LOEWDIN ATOMIC CHARGES AND SPIN POPULATIONS
-------------------------------------------
   0 C :   -0.696065    0.001666
   1 O :   -0.047958    0.003796
   2 O :   -0.055211    0.000819
   3 C :   -0.450855    0.005471
   4 C :   -0.463367    0.021052
   5 C :   -0.488672    0.054301
   6 C :   -0.167104    0.665633
   7 C :   -0.484959    0.060761
   8 C :   -0.472160    0.003009
   9 C :   -0.678431    0.000058
  10 F :    0.170117   -0.000087
  11 F :    0.161336    0.000517
  12 F :    0.212935    0.001141
  13 F :    0.208251    0.000760
  14 F :    0.216093    0.006647
  15 F :    0.208878    0.014925
  16 F :    0.262690    0.107414
  17 F :    0.198063    0.036370
  18 F :    0.218402    0.012158
  19 F :    0.228685    0.001611
  20 F :    0.228461    0.001742
  21 F :    0.231325    0.000071
  22 F :    0.227839    0.000151
  23 F :    0.231706    0.000013

  Mayer bond orders larger than 0.100000
B(  0-C ,  1-O ) :   1.8512 B(  0-C ,  2-O ) :   1.8245 B(  0-C ,  3-C ) :   0.8399
B(  3-C ,  4-C ) :   0.9265 B(  3-C , 10-F ) :   1.0369 B(  3-C , 11-F ) :   1.0258
B(  4-C ,  5-C ) :   0.9202 B(  4-C , 12-F ) :   1.0575 B(  4-C , 13-F ) :   1.0530
B(  5-C ,  6-C ) :   1.0115 B(  5-C , 14-F ) :   1.0750 B(  5-C , 15-F ) :   1.0681
B(  6-C ,  7-C ) :   1.0364 B(  6-C , 16-F ) :   1.1056 B(  7-C ,  8-C ) :   0.9268
B(  7-C , 17-F ) :   1.0647 B(  7-C , 18-F ) :   1.0665 B(  8-C ,  9-C ) :   0.9513
B(  8-C , 19-F ) :   1.0839 B(  8-C , 20-F ) :   1.0851 B(  9-C , 21-F ) :   1.1344
B(  9-C , 22-F ) :   1.1292 B(  9-C , 23-F ) :   1.1428

Dispersion correction           -0.008091658
FINAL SINGLE POINT ENERGY     -1853.116887336885

DIPOLE MOMENT
-------------

Method             : SCF
Type of density    : Electron Density
Multiplicity       :   2
Irrep              :   0
Energy             : -1853.1087956787566782 Eh
Relativity type    :
Basis              : AO
                                X                 Y                 Z
Electronic contribution:    -16.197365824      -1.629583922       4.502959481
Nuclear contribution   :      8.416895663       0.942236786      -2.256964758
                        -----------------------------------------
Total Dipole Moment    :     -7.780470161      -0.687347136       2.245994723
                        -----------------------------------------
Magnitude (a.u.)       :      8.127278407
Magnitude (Debye)      :     20.657900001

Rotational constants in cm-1:             0.018322             0.004292             0.004161
Rotational constants in MHz :           549.280835           128.676704           124.734284

                             ****ORCA TERMINATED NORMALLY****
TOTAL RUN TIME: 0 days 0 hours 27 minutes 23 seconds 162 msec
