                         Program Version 6.0.1  -  RELEASE   -
|  1> !B3LYP def2-TZVP freq d3 TightSCF SlowConv defgrid2
|  2>
|  3> %pal
|  4> nprocs 20
|  5> end
|  6>
|  7> %scf
|  8> MaxIter 1500
|  9> end
| 10>
| 11> %maxcore 8000
| 12>
| 13> !CPCM
| 14> %cpcm smd true
| 15> SMDsolvent "ACETONITRILE"
| 16> end
| 17>
| 18> * xyz -1 2
| 19> 6        6.845931000     27.072283000      1.721327000
| 20> 6        6.193743000     25.692174000      2.059706000
| 21> 6        7.224981000     24.543488000      2.315502000
| 22> 6        6.618994000     23.295639000      3.057453000
| 23> 6        7.460810000     22.067522000      2.926121000
| 24> 6        7.077178000     20.725510000      2.369194000
| 25> 6        7.165041000     20.605719000      0.820822000
| 26> 6        6.777912000     19.180627000      0.270155000
| 27> 9        7.782661000     26.933590000      0.779819000
| 28> 9        7.397874000     27.614660000      2.806708000
| 29> 9        5.900530000     27.897835000      1.267684000
| 30> 9        5.420930000     25.866137000      3.150570000
| 31> 9        5.408859000     25.343182000      1.023029000
| 32> 9        7.706325000     24.141661000      1.120439000
| 33> 9        8.251804000     25.022477000      3.048167000
| 34> 9        6.496154000     23.636127000      4.374089000
| 35> 9        5.379749000     23.064533000      2.571757000
| 36> 9        8.747478000     22.239542000      3.190439000
| 37> 9        7.916296000     19.798850000      2.904823000
| 38> 9        5.810217000     20.419297000      2.749902000
| 39> 9        6.353292000     21.570762000      0.299829000
| 40> 9        8.442071000     20.941519000      0.474374000
| 41> 8        7.721085000     18.379522000      0.172522000
| 42> 8        5.573123000     19.027370000      0.012138000
| 43> 8        3.368498000     20.664541000      0.439614000
| 44> 1        3.696545000     21.476740000      0.842866000
| 45> 1        4.173300000     20.123324000      0.294144000
| 46> 1        9.422503000     18.506935000      0.739952000
| 47> 8       10.353748000     18.506222000      1.047447000
| 48> 1       10.461780000     19.360350000      1.482094000
| 49> *
| 50>
| 51>                          ****END OF INPUT****

CARTESIAN COORDINATES (ANGSTROEM)
---------------------------------
  C      6.845931   27.072283    1.721327
  C      6.193743   25.692174    2.059706
  C      7.224981   24.543488    2.315502
  C      6.618994   23.295639    3.057453
  C      7.460810   22.067522    2.926121
  C      7.077178   20.725510    2.369194
  C      7.165041   20.605719    0.820822
  C      6.777912   19.180627    0.270155
  F      7.782661   26.933590    0.779819
  F      7.397874   27.614660    2.806708
  F      5.900530   27.897835    1.267684
  F      5.420930   25.866137    3.150570
  F      5.408859   25.343182    1.023029
  F      7.706325   24.141661    1.120439
  F      8.251804   25.022477    3.048167
  F      6.496154   23.636127    4.374089
  F      5.379749   23.064533    2.571757
  F      8.747478   22.239542    3.190439
  F      7.916296   19.798850    2.904823
  F      5.810217   20.419297    2.749902
  F      6.353292   21.570762    0.299829
  F      8.442071   20.941519    0.474374
  O      7.721085   18.379522    0.172522
  O      5.573123   19.027370    0.012138
  O      3.368498   20.664541    0.439614
  H      3.696545   21.476740    0.842866
  H      4.173300   20.123324    0.294144
  H      9.422503   18.506935    0.739952
  O     10.353748   18.506222    1.047447
  H     10.461780   19.360350    1.482094

 Total Charge           Charge          ....   -1
 Multiplicity           Mult            ....    2
 Number of Electrons    NEL             ....  211
 Basis Dimension        Dim             ....  830

ORBITAL ENERGIES
----------------
                 SPIN UP ORBITALS
  NO   OCC          E(Eh)            E(eV)
   0   1.0000     -24.751085      -673.5113
   1   1.0000     -24.744332      -673.3275
   2   1.0000     -24.743264      -673.2984
   3   1.0000     -24.742678      -673.2825
   4   1.0000     -24.742165      -673.2685
   5   1.0000     -24.741672      -673.2551
   6   1.0000     -24.740947      -673.2354
   7   1.0000     -24.740942      -673.2353
   8   1.0000     -24.737316      -673.1366
   9   1.0000     -24.728394      -672.8938
  10   1.0000     -24.721668      -672.7108
  11   1.0000     -24.721308      -672.7010
  12   1.0000     -24.707676      -672.3300
  13   1.0000     -24.707270      -672.3190
  14   1.0000     -19.088144      -519.4148
  15   1.0000     -19.088052      -519.4123
  16   1.0000     -19.083656      -519.2927
  17   1.0000     -19.083549      -519.2898
  18   1.0000     -10.460369      -284.6411
  19   1.0000     -10.405830      -283.1570
  20   1.0000     -10.404170      -283.1118
  21   1.0000     -10.402475      -283.0657
  22   1.0000     -10.385288      -282.5980
  23   1.0000     -10.353271      -281.7268
  24   1.0000     -10.319618      -280.8111
  25   1.0000     -10.275570      -279.6125
  26   1.0000      -1.352877       -36.8136
  27   1.0000      -1.324085       -36.0302
  28   1.0000      -1.307726       -35.5850
  29   1.0000      -1.302557       -35.4444
  30   1.0000      -1.296508       -35.2798
  31   1.0000      -1.285873       -34.9904
  32   1.0000      -1.271268       -34.5930
  33   1.0000      -1.265435       -34.4342
  34   1.0000      -1.259982       -34.2858
  35   1.0000      -1.256410       -34.1886
  36   1.0000      -1.249073       -33.9890
  37   1.0000      -1.241437       -33.7812
  38   1.0000      -1.233235       -33.5580
  39   1.0000      -1.214337       -33.0438
  40   1.0000      -1.047737       -28.5104
  41   1.0000      -0.975425       -26.5427
  42   1.0000      -0.972174       -26.4542
  43   1.0000      -0.960887       -26.1471
  44   1.0000      -0.852550       -23.1991
  45   1.0000      -0.831337       -22.6218
  46   1.0000      -0.795318       -21.6417
  47   1.0000      -0.758187       -20.6313
  48   1.0000      -0.719078       -19.5671
  49   1.0000      -0.691054       -18.8045
  50   1.0000      -0.664628       -18.0855
  51   1.0000      -0.646744       -17.5988
  52   1.0000      -0.644042       -17.5253
  53   1.0000      -0.636704       -17.3256
  54   1.0000      -0.623153       -16.9569
  55   1.0000      -0.620724       -16.8908
  56   1.0000      -0.617908       -16.8141
  57   1.0000      -0.610769       -16.6199
  58   1.0000      -0.603531       -16.4229
  59   1.0000      -0.599214       -16.3054
  60   1.0000      -0.592836       -16.1319
  61   1.0000      -0.582323       -15.8458
  62   1.0000      -0.580538       -15.7973
  63   1.0000      -0.571852       -15.5609
  64   1.0000      -0.555646       -15.1199
  65   1.0000      -0.530313       -14.4305
  66   1.0000      -0.514710       -14.0060
  67   1.0000      -0.514313       -13.9952
  68   1.0000      -0.509239       -13.8571
  69   1.0000      -0.503521       -13.7015
  70   1.0000      -0.498937       -13.5768
  71   1.0000      -0.498183       -13.5562
  72   1.0000      -0.496936       -13.5223
  73   1.0000      -0.488823       -13.3016
  74   1.0000      -0.483046       -13.1444
  75   1.0000      -0.481502       -13.1023
  76   1.0000      -0.477585       -12.9958
  77   1.0000      -0.474267       -12.9055
  78   1.0000      -0.468306       -12.7432
  79   1.0000      -0.464402       -12.6370
  80   1.0000      -0.463033       -12.5998
  81   1.0000      -0.459670       -12.5083
  82   1.0000      -0.459229       -12.4963
  83   1.0000      -0.452217       -12.3054
  84   1.0000      -0.450057       -12.2467
  85   1.0000      -0.447211       -12.1692
  86   1.0000      -0.442961       -12.0536
  87   1.0000      -0.441614       -12.0169
  88   1.0000      -0.440034       -11.9739
  89   1.0000      -0.437930       -11.9167
  90   1.0000      -0.433856       -11.8058
  91   1.0000      -0.424323       -11.5464
  92   1.0000      -0.421535       -11.4705
  93   1.0000      -0.419910       -11.4263
  94   1.0000      -0.408453       -11.1146
  95   1.0000      -0.405076       -11.0227
  96   1.0000      -0.378974       -10.3124
  97   1.0000      -0.360269        -9.8034
  98   1.0000      -0.359539        -9.7836
  99   1.0000      -0.353991        -9.6326
 100   1.0000      -0.286926        -7.8077
 101   1.0000      -0.284792        -7.7496
 102   1.0000      -0.275074        -7.4851
 103   1.0000      -0.269957        -7.3459
 104   1.0000      -0.259429        -7.0594
 105   1.0000      -0.252595        -6.8735
 106   0.0000      -0.005399        -0.1469
 107   0.0000       0.015418         0.4195
 108   0.0000       0.021536         0.5860
 109   0.0000       0.040681         1.1070
 110   0.0000       0.057850         1.5742

                 SPIN DOWN ORBITALS
  NO   OCC          E(Eh)            E(eV)
   0   1.0000     -24.746697      -673.3918
   1   1.0000     -24.744333      -673.3275
   2   1.0000     -24.743261      -673.2984
   3   1.0000     -24.742660      -673.2820
   4   1.0000     -24.742164      -673.2685
   5   1.0000     -24.741568      -673.2523
   6   1.0000     -24.740935      -673.2351
   7   1.0000     -24.740889      -673.2338
   8   1.0000     -24.737187      -673.1331
   9   1.0000     -24.727082      -672.8581
  10   1.0000     -24.721184      -672.6976
  11   1.0000     -24.720927      -672.6906
  12   1.0000     -24.707650      -672.3293
  13   1.0000     -24.707252      -672.3185
  14   1.0000     -19.088143      -519.4148
  15   1.0000     -19.088051      -519.4123
  16   1.0000     -19.083492      -519.2882
  17   1.0000     -19.083400      -519.2857
  18   1.0000     -10.460340      -284.6403
  19   1.0000     -10.405771      -283.1554
  20   1.0000     -10.403685      -283.0987
  21   1.0000     -10.403252      -283.0869
  22   1.0000     -10.386165      -282.6219
  23   1.0000     -10.352519      -281.7064
  24   1.0000     -10.305252      -280.4202
  25   1.0000     -10.275485      -279.6102
  26   1.0000      -1.352847       -36.8128
  27   1.0000      -1.323510       -36.0145
  28   1.0000      -1.307106       -35.5682
  29   1.0000      -1.300765       -35.3956
  30   1.0000      -1.294499       -35.2251
  31   1.0000      -1.278894       -34.8005
  32   1.0000      -1.270846       -34.5815
  33   1.0000      -1.265381       -34.4328
  34   1.0000      -1.259956       -34.2851
  35   1.0000      -1.256173       -34.1822
  36   1.0000      -1.248933       -33.9852
  37   1.0000      -1.239605       -33.7314
  38   1.0000      -1.232202       -33.5299
  39   1.0000      -1.214194       -33.0399
  40   1.0000      -1.047414       -28.5016
  41   1.0000      -0.975348       -26.5406
  42   1.0000      -0.972170       -26.4541
  43   1.0000      -0.960599       -26.1392
  44   1.0000      -0.844430       -22.9781
  45   1.0000      -0.823217       -22.4009
  46   1.0000      -0.793659       -21.5966
  47   1.0000      -0.752084       -20.4653
  48   1.0000      -0.715540       -19.4708
  49   1.0000      -0.690191       -18.7810
  50   1.0000      -0.660788       -17.9810
  51   1.0000      -0.645174       -17.5561
  52   1.0000      -0.643152       -17.5011
  53   1.0000      -0.636571       -17.3220
  54   1.0000      -0.621850       -16.9214
  55   1.0000      -0.619394       -16.8546
  56   1.0000      -0.612514       -16.6673
  57   1.0000      -0.609295       -16.5798
  58   1.0000      -0.602251       -16.3881
  59   1.0000      -0.597028       -16.2460
  60   1.0000      -0.591915       -16.1068
  61   1.0000      -0.580728       -15.8024
  62   1.0000      -0.578964       -15.7544
  63   1.0000      -0.569787       -15.5047
  64   1.0000      -0.554976       -15.1017
  65   1.0000      -0.514859       -14.0100
  66   1.0000      -0.514421       -13.9981
  67   1.0000      -0.511401       -13.9159
  68   1.0000      -0.505121       -13.7451
  69   1.0000      -0.500106       -13.6086
  70   1.0000      -0.498167       -13.5558
  71   1.0000      -0.496992       -13.5238
  72   1.0000      -0.494637       -13.4598
  73   1.0000      -0.487291       -13.2598
  74   1.0000      -0.481859       -13.1121
  75   1.0000      -0.480197       -13.0668
  76   1.0000      -0.476855       -12.9759
  77   1.0000      -0.473761       -12.8917
  78   1.0000      -0.467557       -12.7229
  79   1.0000      -0.463382       -12.6093
  80   1.0000      -0.462661       -12.5896
  81   1.0000      -0.458498       -12.4764
  82   1.0000      -0.454894       -12.3783
  83   1.0000      -0.451878       -12.2962
  84   1.0000      -0.449639       -12.2353
  85   1.0000      -0.446849       -12.1594
  86   1.0000      -0.442452       -12.0397
  87   1.0000      -0.441162       -12.0046
  88   1.0000      -0.439344       -11.9552
  89   1.0000      -0.437040       -11.8925
  90   1.0000      -0.433024       -11.7832
  91   1.0000      -0.423149       -11.5145
  92   1.0000      -0.421153       -11.4602
  93   1.0000      -0.419560       -11.4168
  94   1.0000      -0.406564       -11.0632
  95   1.0000      -0.404333       -11.0025
  96   1.0000      -0.375869       -10.2279
  97   1.0000      -0.359496        -9.7824
  98   1.0000      -0.358970        -9.7681
  99   1.0000      -0.352586        -9.5943
 100   1.0000      -0.286858        -7.8058
 101   1.0000      -0.284731        -7.7479
 102   1.0000      -0.269608        -7.3364
 103   1.0000      -0.260927        -7.1002
 104   1.0000      -0.258913        -7.0454
 105   0.0000      -0.122960        -3.3459
 106   0.0000      -0.002815        -0.0766
 107   0.0000       0.017517         0.4767
 108   0.0000       0.024894         0.6774
 109   0.0000       0.044087         1.1997

MULLIKEN ATOMIC CHARGES AND SPIN POPULATIONS
--------------------------------------------
   0 C :    0.476822    0.001125
   1 C :    0.323235    0.002737
   2 C :    0.320769    0.011092
   3 C :    0.376306    0.002502
   4 C :    0.087806    0.835577
   5 C :    0.374671   -0.027116
   6 C :    0.308752    0.030126
   7 C :    0.273137    0.002757
   8 F :   -0.155704   -0.000028
   9 F :   -0.153584    0.000027
  10 F :   -0.153084    0.000330
  11 F :   -0.166076   -0.000024
  12 F :   -0.164225    0.000177
  13 F :   -0.174949    0.000912
  14 F :   -0.171407    0.001942
  15 F :   -0.180315    0.023991
  16 F :   -0.177325    0.002392
  17 F :   -0.151322    0.083939
  18 F :   -0.189436    0.007336
  19 F :   -0.187105    0.008097
  20 F :   -0.218582    0.000429
  21 F :   -0.216631    0.000597
  22 O :   -0.491984    0.005217
  23 O :   -0.492630    0.005808
  24 O :   -0.721610    0.000026
  25 H :    0.325921    0.000022
  26 H :    0.346645   -0.000012
  27 H :    0.346927   -0.000032
  28 O :   -0.721897    0.000013
  29 H :    0.326875    0.000043
Sum of atomic charges         :   -1.0000000

LOEWDIN ATOMIC CHARGES AND SPIN POPULATIONS
-------------------------------------------
   0 C :   -0.663172    0.000896
   1 C :   -0.463305    0.003174
   2 C :   -0.450436    0.015326
   3 C :   -0.474543    0.066595
   4 C :   -0.163158    0.652386
   5 C :   -0.480803    0.057735
   6 C :   -0.437062    0.026983
   7 C :   -0.644288    0.004954
   8 F :    0.224431   -0.000005
   9 F :    0.225752    0.000065
  10 F :    0.225133    0.000399
  11 F :    0.222216    0.000023
  12 F :    0.222860    0.000235
  13 F :    0.222132    0.001473
  14 F :    0.220449    0.002593
  15 F :    0.192142    0.026693
  16 F :    0.221905    0.003250
  17 F :    0.256405    0.108608
  18 F :    0.200245    0.007447
  19 F :    0.202333    0.009558
  20 F :    0.173442    0.000884
  21 F :    0.171453    0.000686
  22 O :   -0.024509    0.004738
  23 O :   -0.024918    0.005223
  24 O :   -0.362711    0.000032
  25 H :    0.148597    0.000025
  26 H :    0.136167   -0.000017
  27 H :    0.135847   -0.000020
  28 O :   -0.363213    0.000024
  29 H :    0.150609    0.000036

  Mayer bond orders larger than 0.100000
B(  0-C ,  1-C ) :   0.9646 B(  0-C ,  8-F ) :   1.1426 B(  0-C ,  9-F ) :   1.1541
B(  0-C , 10-F ) :   1.1479 B(  1-C ,  2-C ) :   0.9099 B(  1-C , 11-F ) :   1.0880
B(  1-C , 12-F ) :   1.0982 B(  2-C ,  3-C ) :   0.9099 B(  2-C , 13-F ) :   1.0659
B(  2-C , 14-F ) :   1.0811 B(  3-C ,  4-C ) :   1.0492 B(  3-C , 15-F ) :   1.0683
B(  3-C , 16-F ) :   1.0636 B(  4-C ,  5-C ) :   0.9968 B(  4-C , 17-F ) :   1.1170
B(  5-C ,  6-C ) :   0.8997 B(  5-C , 18-F ) :   1.0636 B(  5-C , 19-F ) :   1.0878
B(  6-C ,  7-C ) :   0.8756 B(  6-C , 20-F ) :   1.0183 B(  6-C , 21-F ) :   1.0154
B(  7-C , 22-O ) :   1.7478 B(  7-C , 23-O ) :   1.7459 B( 22-O , 27-H ) :   0.1142
B( 23-O , 26-H ) :   0.1138 B( 24-O , 25-H ) :   0.9051 B( 24-O , 26-H ) :   0.8317
B( 27-H , 28-O ) :   0.8330 B( 28-O , 29-H ) :   0.9032

Dispersion correction           -0.050142426
FINAL SINGLE POINT ENERGY     -2006.178798276561

DIPOLE MOMENT
-------------

Method             : SCF
Type of density    : Electron Density
Multiplicity       :   2
Irrep              :   0
Energy             : -2006.1286558509855240 Eh
Relativity type    :
Basis              : AO
                                X                 Y                 Z
Electronic contribution:      0.889570171      32.051477558      10.811278891
Nuclear contribution   :     -0.233658099     -24.237869250      -7.740536093
                        -----------------------------------------
Total Dipole Moment    :      0.655912072       7.813608308       3.070742798
                        -----------------------------------------
Magnitude (a.u.)       :      8.420935623
Magnitude (Debye)      :     21.404317324

VIBRATIONAL FREQUENCIES
-----------------------

Scaling factor for frequencies =  1.000000000  (already applied!)

     0:       0.00 cm**-1
     1:       0.00 cm**-1
     2:       0.00 cm**-1
     3:       0.00 cm**-1
     4:       0.00 cm**-1
     5:       0.00 cm**-1
     6:      18.03 cm**-1
     7:      24.88 cm**-1
     8:      31.36 cm**-1
     9:      32.86 cm**-1
    10:      49.48 cm**-1
    11:      55.63 cm**-1
    12:      57.21 cm**-1
    13:      60.47 cm**-1
    14:      64.35 cm**-1
    15:      67.95 cm**-1
    16:      84.10 cm**-1
    17:      93.24 cm**-1
    18:     109.85 cm**-1
    19:     117.90 cm**-1
    20:     127.80 cm**-1
    21:     140.52 cm**-1
    22:     154.79 cm**-1
    23:     159.11 cm**-1
    24:     183.56 cm**-1
    25:     189.33 cm**-1
    26:     193.58 cm**-1
    27:     207.54 cm**-1
    28:     218.84 cm**-1
    29:     225.05 cm**-1
    30:     240.80 cm**-1
    31:     244.84 cm**-1
    32:     276.80 cm**-1
    33:     282.85 cm**-1
    34:     287.04 cm**-1
    35:     310.29 cm**-1
    36:     333.65 cm**-1
    37:     343.62 cm**-1
    38:     346.05 cm**-1
    39:     357.64 cm**-1
    40:     372.04 cm**-1
    41:     373.43 cm**-1
    42:     405.52 cm**-1
    43:     418.96 cm**-1
    44:     434.03 cm**-1
    45:     437.68 cm**-1
    46:     458.73 cm**-1
    47:     509.86 cm**-1
    48:     527.68 cm**-1
    49:     550.96 cm**-1
    50:     562.92 cm**-1
    51:     575.10 cm**-1
    52:     578.76 cm**-1
    53:     596.53 cm**-1
    54:     617.59 cm**-1
    55:     653.15 cm**-1
    56:     677.04 cm**-1
    57:     678.51 cm**-1
    58:     688.62 cm**-1
    59:     701.35 cm**-1
    60:     724.45 cm**-1
    61:     770.41 cm**-1
    62:     806.76 cm**-1
    63:     879.35 cm**-1
    64:     979.88 cm**-1
    65:    1044.11 cm**-1
    66:    1095.46 cm**-1
    67:    1105.14 cm**-1
    68:    1115.27 cm**-1
    69:    1118.71 cm**-1
    70:    1129.73 cm**-1
    71:    1143.83 cm**-1
    72:    1149.17 cm**-1
    73:    1159.58 cm**-1
    74:    1167.36 cm**-1
    75:    1184.24 cm**-1
    76:    1187.52 cm**-1
    77:    1203.57 cm**-1
    78:    1254.79 cm**-1
    79:    1316.64 cm**-1
    80:    1324.22 cm**-1
    81:    1363.17 cm**-1
    82:    1394.58 cm**-1
    83:    1662.63 cm**-1
    84:    1665.24 cm**-1
    85:    1711.63 cm**-1
    86:    3464.46 cm**-1
    87:    3480.55 cm**-1
    88:    3807.63 cm**-1
    89:    3812.58 cm**-1

IR SPECTRUM
-----------

 Mode   freq       eps      Int      T**2         TX        TY        TZ
       cm**-1   L/(mol*cm) km/mol    a.u.
----------------------------------------------------------------------------
  6:     18.03   0.000406    2.05  0.007025  ( 0.064745 -0.014573 -0.051193)
  7:     24.88   0.000522    2.64  0.006543  ( 0.001884  0.061252 -0.052802)
  8:     31.36   0.000656    3.31  0.006525  ( 0.017455  0.039739 -0.068129)
  9:     32.86   0.000159    0.80  0.001510  (-0.035471 -0.015569  0.003042)
 10:     49.48   0.000220    1.11  0.001387  ( 0.007792  0.027991  0.023300)
 11:     55.63   0.000361    1.82  0.002025  (-0.001466 -0.009299  0.044008)
 12:     57.21   0.000417    2.11  0.002274  (-0.013711 -0.019880  0.041115)
 13:     60.47   0.000056    0.28  0.000287  ( 0.012817 -0.009303  0.006006)
 14:     64.35   0.000160    0.81  0.000775  ( 0.014916 -0.008017 -0.022104)
 15:     67.95   0.003031   15.32  0.013920  (-0.000380  0.001331  0.117977)
 16:     84.10   0.000449    2.27  0.001667  (-0.019927 -0.016677  0.031490)
 17:     93.24   0.002634   13.31  0.008816  ( 0.011332  0.037653 -0.085265)
 18:    109.85   0.000813    4.11  0.002310  ( 0.014133  0.007284 -0.045354)
 19:    117.90   0.023437  118.44  0.062035  ( 0.022505  0.106420 -0.224060)
 20:    127.80   0.000107    0.54  0.000262  (-0.013188 -0.009303  0.001313)
 21:    140.52   0.027526  139.11  0.061131  ( 0.068887  0.095232 -0.217524)
 22:    154.79   0.000410    2.07  0.000827  (-0.000108 -0.013575  0.025348)
 23:    159.11   0.000417    2.11  0.000818  (-0.001727 -0.008113  0.027365)
 24:    183.56   0.000254    1.28  0.000432  (-0.017472 -0.006957 -0.008859)
 25:    189.33   0.002140   10.82  0.003528  (-0.021990  0.026918  0.048161)
 26:    193.58   0.006706   33.89  0.010811  (-0.097268  0.017784 -0.032145)
 27:    207.54   0.002006   10.14  0.003016  (-0.041688  0.023936  0.026552)
 28:    218.84   0.000378    1.91  0.000540  (-0.020279  0.011323  0.000287)
 29:    225.05   0.000702    3.55  0.000974  (-0.020108  0.006192 -0.023041)
 30:    240.80   0.000081    0.41  0.000104  ( 0.007470 -0.004889 -0.004968)
 31:    244.84   0.000029    0.14  0.000037  ( 0.001536  0.004299 -0.003965)
 32:    276.80   0.001215    6.14  0.001370  ( 0.035963 -0.006004  0.006334)
 33:    282.85   0.001414    7.15  0.001560  (-0.016575  0.035840 -0.000942)
 34:    287.04   0.000449    2.27  0.000488  (-0.011110  0.018204 -0.005774)
 35:    310.29   0.000042    0.21  0.000043  ( 0.002728 -0.004085  0.004293)
 36:    333.65   0.000206    1.04  0.000193  (-0.002759  0.011073  0.007905)
 37:    343.62   0.000528    2.67  0.000479  (-0.016826  0.006410 -0.012456)
 38:    346.05   0.000256    1.29  0.000231  (-0.004100 -0.008769 -0.011718)
 39:    357.64   0.000236    1.19  0.000206  (-0.010269  0.001051 -0.009987)
 40:    372.04   0.003319   16.77  0.002784  ( 0.006324  0.042295  0.030904)
 41:    373.43   0.000015    0.08  0.000012  ( 0.000312 -0.002228  0.002716)
 42:    405.52   0.006592   33.31  0.005073  ( 0.062734 -0.033591 -0.002984)
 43:    418.96   0.004993   25.23  0.003719  ( 0.054999  0.022925  0.012974)
 44:    434.03   0.019216   97.11  0.013816  (-0.008613 -0.106740 -0.048464)
 45:    437.68   0.008256   41.72  0.005886  (-0.070341  0.015231 -0.026577)
 46:    458.73   0.001922    9.71  0.001308  ( 0.030915  0.014586 -0.011799)
 47:    509.86   0.000912    4.61  0.000558  (-0.016024 -0.007130 -0.015825)
 48:    527.68   0.004704   23.77  0.002782  ( 0.033793 -0.040356 -0.003337)
 49:    550.96   0.001088    5.50  0.000616  (-0.008011  0.006821 -0.022484)
 50:    562.92   0.003896   19.69  0.002160  (-0.011723 -0.029648  0.033813)
 51:    575.10   0.005791   29.27  0.003142  (-0.023157 -0.050695  0.006013)
 52:    578.76   0.006483   32.76  0.003496  (-0.020851  0.038239  0.039982)
 53:    596.53   0.006745   34.08  0.003528  ( 0.002910 -0.054762 -0.022827)
 54:    617.59   0.006533   33.01  0.003301  ( 0.007160  0.055356  0.013620)
 55:    653.15   0.001124    5.68  0.000537  (-0.005002 -0.011950  0.019210)
 56:    677.04   0.007903   39.94  0.003642  ( 0.008455 -0.024048  0.054705)
 57:    678.51   0.042761  216.10  0.019667  ( 0.035042  0.039370 -0.129957)
 58:    688.62   0.033986  171.75  0.015402  (-0.000472  0.124087 -0.001936)
 59:    701.35   0.002597   13.13  0.001156  (-0.000121 -0.011367  0.032038)
 60:    724.45   0.017294   87.40  0.007450  (-0.016547  0.064306 -0.055142)
 61:    770.41   0.007891   39.88  0.003196  (-0.018750  0.050181 -0.018075)
 62:    806.76   0.021261  107.45  0.008224  ( 0.030122  0.076854  0.037552)
 63:    879.35   0.011950   60.39  0.004241  (-0.009188  0.040770 -0.049941)
 64:    979.88   0.000232    1.17  0.000074  (-0.003681 -0.004446 -0.006356)
 65:   1044.11   0.049412  249.71  0.014768  (-0.028511  0.081453  0.085562)
 66:   1095.46   0.068536  346.35  0.019524  (-0.081096 -0.058345  0.097689)
 67:   1105.14   0.067219  339.70  0.018981  (-0.109817  0.072228 -0.041285)
 68:   1115.27   0.002821   14.26  0.000789  ( 0.014235  0.017927 -0.016291)
 69:   1118.71   0.020587  104.04  0.005743  (-0.073334  0.009315 -0.016677)
 70:   1129.73   0.078387  396.14  0.021653  ( 0.134189  0.052449 -0.029920)
 71:   1143.83   0.048695  246.09  0.013285  (-0.021132  0.037127  0.107053)
 72:   1149.17   0.010220   51.65  0.002775  ( 0.021719  0.023707  0.041732)
 73:   1159.58   0.094578  477.96  0.025452  (-0.042419 -0.040109 -0.148473)
 74:   1167.36   0.112805  570.07  0.030155  (-0.173181  0.012767  0.000873)
 75:   1184.24   0.050492  255.16  0.013305  (-0.018881 -0.026299 -0.110712)
 76:   1187.52   0.021589  109.10  0.005673  ( 0.058262 -0.002276  0.047683)
 77:   1203.57   0.007938   40.11  0.002058  (-0.024248  0.036168 -0.012729)
 78:   1254.79   0.004148   20.96  0.001032  ( 0.000754  0.028749  0.014298)
 79:   1316.64   0.023982  121.19  0.005684  (-0.032775  0.061682 -0.028375)
 80:   1324.22   0.016649   84.14  0.003923  (-0.031695  0.053991  0.001954)
 81:   1363.17   0.058843  297.37  0.013471  ( 0.040418  0.091820  0.058363)
 82:   1394.58   0.012931   65.35  0.002893  (-0.011370  0.050223  0.015550)
 83:   1662.63   0.076555  386.88  0.014369  ( 0.115389 -0.030997  0.009662)
 84:   1665.24   0.014299   72.26  0.002680  ( 0.003094  0.048733  0.017180)
 85:   1711.63   0.192048  970.53  0.035014  (-0.178520  0.054352 -0.013808)
 86:   3464.46   0.354406  1791.02  0.031923  (-0.169917  0.053047 -0.015417)
 87:   3480.55   0.024560  124.12  0.002202  (-0.009428 -0.035080 -0.029708)
 88:   3807.63   0.013614   68.80  0.001116  (-0.023350 -0.018238 -0.015426)
 89:   3812.58   0.015177   76.70  0.001242  ( 0.008006 -0.031866 -0.012755)

--------------------------
THERMOCHEMISTRY AT 298.15K
--------------------------

Temperature         ...   298.15 K
Pressure            ...     1.00 atm
Total Mass          ...   430.09 AMU
Quasi RRHO          ...     True
Cut-Off Frequency   ...     1.00 cm^-1

Throughout the following assumptions are being made:
  (1) The electronic state is orbitally nondegenerate
      but the spin degeneracy is treated
  (2) There are no thermally accessible electronically excited states
  (3) Hindered rotations indicated by low frequency modes are not
      treated as such but are treated as vibrations and this may
      cause some error
  (4) All equations used are the standard statistical mechanics
      equations for an ideal gas
  (5) All vibrations are strictly harmonic

freq.      18.03  E(vib)   ...       0.57
freq.      24.88  E(vib)   ...       0.56
freq.      31.36  E(vib)   ...       0.55
freq.      32.86  E(vib)   ...       0.55
freq.      49.48  E(vib)   ...       0.52
freq.      55.63  E(vib)   ...       0.52
freq.      57.21  E(vib)   ...       0.51
freq.      60.47  E(vib)   ...       0.51
freq.      64.35  E(vib)   ...       0.51
freq.      67.95  E(vib)   ...       0.50
freq.      84.10  E(vib)   ...       0.48
freq.      93.24  E(vib)   ...       0.47
freq.     109.85  E(vib)   ...       0.45
freq.     117.90  E(vib)   ...       0.44
freq.     127.80  E(vib)   ...       0.43
freq.     140.52  E(vib)   ...       0.41
freq.     154.79  E(vib)   ...       0.40
freq.     159.11  E(vib)   ...       0.39
freq.     183.56  E(vib)   ...       0.37
freq.     189.33  E(vib)   ...       0.36
freq.     193.58  E(vib)   ...       0.36
freq.     207.54  E(vib)   ...       0.34
freq.     218.84  E(vib)   ...       0.33
freq.     225.05  E(vib)   ...       0.33
freq.     240.80  E(vib)   ...       0.31
freq.     244.84  E(vib)   ...       0.31
freq.     276.80  E(vib)   ...       0.28
freq.     282.85  E(vib)   ...       0.28
freq.     287.04  E(vib)   ...       0.27
freq.     310.29  E(vib)   ...       0.26
freq.     333.65  E(vib)   ...       0.24
freq.     343.62  E(vib)   ...       0.23
freq.     346.05  E(vib)   ...       0.23
freq.     357.64  E(vib)   ...       0.22
freq.     372.04  E(vib)   ...       0.21
freq.     373.43  E(vib)   ...       0.21
freq.     405.52  E(vib)   ...       0.19
freq.     418.96  E(vib)   ...       0.18
freq.     434.03  E(vib)   ...       0.17
freq.     437.68  E(vib)   ...       0.17
freq.     458.73  E(vib)   ...       0.16
freq.     509.86  E(vib)   ...       0.14
freq.     527.68  E(vib)   ...       0.13
freq.     550.96  E(vib)   ...       0.12
freq.     562.92  E(vib)   ...       0.11
freq.     575.10  E(vib)   ...       0.11
freq.     578.76  E(vib)   ...       0.11
freq.     596.53  E(vib)   ...       0.10
freq.     617.59  E(vib)   ...       0.09
freq.     653.15  E(vib)   ...       0.08
freq.     677.04  E(vib)   ...       0.08
freq.     678.51  E(vib)   ...       0.08
freq.     688.62  E(vib)   ...       0.07
freq.     701.35  E(vib)   ...       0.07
freq.     724.45  E(vib)   ...       0.06
freq.     770.41  E(vib)   ...       0.05
freq.     806.76  E(vib)   ...       0.05
freq.     879.35  E(vib)   ...       0.04
freq.     979.88  E(vib)   ...       0.02
freq.    1044.11  E(vib)   ...       0.02
freq.    1095.46  E(vib)   ...       0.02
freq.    1105.14  E(vib)   ...       0.02
freq.    1115.27  E(vib)   ...       0.01
freq.    1118.71  E(vib)   ...       0.01
freq.    1129.73  E(vib)   ...       0.01
freq.    1143.83  E(vib)   ...       0.01
freq.    1149.17  E(vib)   ...       0.01
freq.    1159.58  E(vib)   ...       0.01
freq.    1167.36  E(vib)   ...       0.01
freq.    1184.24  E(vib)   ...       0.01
freq.    1187.52  E(vib)   ...       0.01
freq.    1203.57  E(vib)   ...       0.01
freq.    1254.79  E(vib)   ...       0.01
freq.    1316.64  E(vib)   ...       0.01
freq.    1324.22  E(vib)   ...       0.01
freq.    1363.17  E(vib)   ...       0.01
freq.    1394.58  E(vib)   ...       0.00
freq.    1662.63  E(vib)   ...       0.00
freq.    1665.24  E(vib)   ...       0.00
freq.    1711.63  E(vib)   ...       0.00
freq.    3464.46  E(vib)   ...       0.00
freq.    3480.55  E(vib)   ...       0.00
freq.    3807.63  E(vib)   ...       0.00
freq.    3812.58  E(vib)   ...       0.00

------------
INNER ENERGY
------------

The inner energy is: U= E(el) + E(ZPE) + E(vib) + E(rot) + E(trans)
    E(el)   - is the total energy from the electronic structure calculation
              = E(kin-el) + E(nuc-el) + E(el-el) + E(nuc-nuc)
    E(ZPE)  - the the zero temperature vibrational energy from the frequency calculation
    E(vib)  - the the finite temperature correction to E(ZPE) due to population
              of excited vibrational states
    E(rot)  - is the rotational thermal energy
    E(trans)- is the translational thermal energy

Summary of contributions to the inner energy U:
Electronic energy                ...  -2006.17879828 Eh
Zero point energy                ...      0.14063625 Eh      88.25 kcal/mol
Thermal vibrational correction   ...      0.02634357 Eh      16.53 kcal/mol
Thermal rotational correction    ...      0.00141627 Eh       0.89 kcal/mol
Thermal translational correction ...      0.00141627 Eh       0.89 kcal/mol
-----------------------------------------------------------------------
Total thermal energy                  -2006.00898592 Eh

Summary of corrections to the electronic energy:
(perhaps to be used in another calculation)
Total thermal correction                  0.02917611 Eh      18.31 kcal/mol
Non-thermal (ZPE) correction              0.14063625 Eh      88.25 kcal/mol
-----------------------------------------------------------------------
Total correction                          0.16981236 Eh     106.56 kcal/mol

--------
ENTHALPY
--------

The enthalpy is H = U + kB*T
                kB is Boltzmann's constant
Total thermal energy              ...  -2006.00898592 Eh
Thermal Enthalpy correction       ...      0.00094421 Eh       0.59 kcal/mol
-----------------------------------------------------------------------
Total Enthalpy                    ...  -2006.00804171 Eh

Note: Only C1 symmetry has been detected, increase convergence thresholds
      if your molecule has a higher symmetry. Symmetry factor of 1.0 is
      used for the rotational entropy correction.

Note: Rotational entropy computed according to Herzberg
Infrared and Raman Spectra, Chapter V,1, Van Nostrand Reinhold, 1945
Point Group:  C1, Symmetry Number:   1
Rotational constants in cm-1:     0.012082     0.003931     0.003657

Vibrational entropy computed according to the QRRHO of S. Grimme
Chem.Eur.J. 2012 18 9955 using a reference frequency of 100.0 cm-1

                             ****ORCA TERMINATED NORMALLY****
TOTAL RUN TIME: 0 days 0 hours 26 minutes 39 seconds 647 msec
