                         Program Version 6.0.1  -  RELEASE   -
|  1> !B3LYP def2-TZVP freq d3 TightSCF SlowConv defgrid2
|  2>
|  3> %pal
|  4> nprocs 20
|  5> end
|  6>
|  7> %scf
|  8> MaxIter 1500
|  9> end
| 10>
| 11> %maxcore 8000
| 12>
| 13> !CPCM
| 14> %cpcm smd true
| 15> SMDsolvent "ACETONITRILE"
| 16> end
| 17>
| 18> * xyz 0 2
| 19> 6        4.248093000     -0.317620000      0.634138000
| 20> 8        5.020930000     -1.129040000     -0.072440000
| 21> 8        4.598110000      0.500745000      1.434658000
| 22> 6        2.753220000     -0.534893000      0.286298000
| 23> 6        2.286331000      0.283536000     -0.960284000
| 24> 6        0.856025000      0.048306000     -1.352744000
| 25> 6       -0.367351000      0.756761000     -0.863067000
| 26> 6       -1.505405000     -0.228124000     -0.408188000
| 27> 6       -2.604112000      0.445906000      0.479426000
| 28> 6       -3.925611000     -0.379170000      0.606128000
| 29> 9        2.499071000     -1.841294000      0.036024000
| 30> 9        2.007224000     -0.150473000      1.342508000
| 31> 9        2.495327000      1.595089000     -0.694350000
| 32> 9        3.077934000     -0.076355000     -2.001944000
| 33> 9        0.645981000     -0.949599000     -2.192775000
| 34> 9       -0.047753000      1.559514000      0.175642000
| 35> 9       -0.883006000      1.539996000     -1.853707000
| 36> 9       -0.949058000     -1.230589000      0.303842000
| 37> 9       -2.080718000     -0.755468000     -1.507820000
| 38> 9       -2.926632000      1.651083000     -0.030554000
| 39> 9       -2.109126000      0.616617000      1.719814000
| 40> 9       -3.661458000     -1.640403000      0.955205000
| 41> 9       -4.689153000      0.177124000      1.549127000
| 42> 9       -4.601139000     -0.376807000     -0.542463000
| 43> 1        5.958454000     -0.961552000      0.150259000
| 44> *
| 45>
| 46>                          ****END OF INPUT****

CARTESIAN COORDINATES (ANGSTROEM)
---------------------------------
  C      4.248093   -0.317620    0.634138
  O      5.020930   -1.129040   -0.072440
  O      4.598110    0.500745    1.434658
  C      2.753220   -0.534893    0.286298
  C      2.286331    0.283536   -0.960284
  C      0.856025    0.048306   -1.352744
  C     -0.367351    0.756761   -0.863067
  C     -1.505405   -0.228124   -0.408188
  C     -2.604112    0.445906    0.479426
  C     -3.925611   -0.379170    0.606128
  F      2.499071   -1.841294    0.036024
  F      2.007224   -0.150473    1.342508
  F      2.495327    1.595089   -0.694350
  F      3.077934   -0.076355   -2.001944
  F      0.645981   -0.949599   -2.192775
  F     -0.047753    1.559514    0.175642
  F     -0.883006    1.539996   -1.853707
  F     -0.949058   -1.230589    0.303842
  F     -2.080718   -0.755468   -1.507820
  F     -2.926632    1.651083   -0.030554
  F     -2.109126    0.616617    1.719814
  F     -3.661458   -1.640403    0.955205
  F     -4.689153    0.177124    1.549127
  F     -4.601139   -0.376807   -0.542463
  H      5.958454   -0.961552    0.150259

 Total Charge           Charge          ....    0
 Multiplicity           Mult            ....    2
 Number of Electrons    NEL             ....  191
 Basis Dimension        Dim             ....  750

ORBITAL ENERGIES
----------------
                 SPIN UP ORBITALS
  NO   OCC          E(Eh)            E(eV)
   0   1.0000     -24.759533      -673.7411
   1   1.0000     -24.746351      -673.3825
   2   1.0000     -24.745306      -673.3540
   3   1.0000     -24.744945      -673.3442
   4   1.0000     -24.744752      -673.3389
   5   1.0000     -24.744570      -673.3340
   6   1.0000     -24.744471      -673.3313
   7   1.0000     -24.743368      -673.3013
   8   1.0000     -24.741783      -673.2582
   9   1.0000     -24.736306      -673.1091
  10   1.0000     -24.735228      -673.0798
  11   1.0000     -24.732939      -673.0175
  12   1.0000     -24.732394      -673.0026
  13   1.0000     -24.732314      -673.0005
  14   1.0000     -19.205795      -522.6162
  15   1.0000     -19.153116      -521.1828
  16   1.0000     -10.462475      -284.6984
  17   1.0000     -10.408491      -283.2294
  18   1.0000     -10.408151      -283.2202
  19   1.0000     -10.407991      -283.2158
  20   1.0000     -10.403173      -283.0847
  21   1.0000     -10.391428      -282.7651
  22   1.0000     -10.344753      -281.4950
  23   1.0000     -10.330106      -281.0965
  24   1.0000      -1.354969       -36.8706
  25   1.0000      -1.327863       -36.1330
  26   1.0000      -1.316653       -35.8280
  27   1.0000      -1.309841       -35.6426
  28   1.0000      -1.304662       -35.5016
  29   1.0000      -1.299623       -35.3645
  30   1.0000      -1.294072       -35.2135
  31   1.0000      -1.267993       -34.5039
  32   1.0000      -1.261849       -34.3366
  33   1.0000      -1.259395       -34.2699
  34   1.0000      -1.251963       -34.0676
  35   1.0000      -1.250737       -34.0343
  36   1.0000      -1.245661       -33.8962
  37   1.0000      -1.240286       -33.7499
  38   1.0000      -1.145238       -31.1635
  39   1.0000      -1.061020       -28.8718
  40   1.0000      -0.860500       -23.4154
  41   1.0000      -0.838089       -22.8056
  42   1.0000      -0.810592       -22.0573
  43   1.0000      -0.778242       -21.1770
  44   1.0000      -0.739260       -20.1163
  45   1.0000      -0.700568       -19.0634
  46   1.0000      -0.680714       -18.5232
  47   1.0000      -0.665190       -18.1007
  48   1.0000      -0.651677       -17.7330
  49   1.0000      -0.647415       -17.6171
  50   1.0000      -0.639219       -17.3940
  51   1.0000      -0.629263       -17.1231
  52   1.0000      -0.628278       -17.0963
  53   1.0000      -0.623403       -16.9637
  54   1.0000      -0.614742       -16.7280
  55   1.0000      -0.612120       -16.6566
  56   1.0000      -0.611738       -16.6462
  57   1.0000      -0.598889       -16.2966
  58   1.0000      -0.596324       -16.2268
  59   1.0000      -0.584044       -15.8926
  60   1.0000      -0.580445       -15.7947
  61   1.0000      -0.572270       -15.5723
  62   1.0000      -0.538707       -14.6590
  63   1.0000      -0.519034       -14.1236
  64   1.0000      -0.517010       -14.0685
  65   1.0000      -0.513109       -13.9624
  66   1.0000      -0.506676       -13.7873
  67   1.0000      -0.501813       -13.6550
  68   1.0000      -0.500891       -13.6299
  69   1.0000      -0.495748       -13.4900
  70   1.0000      -0.493482       -13.4283
  71   1.0000      -0.489207       -13.3120
  72   1.0000      -0.485718       -13.2170
  73   1.0000      -0.484461       -13.1829
  74   1.0000      -0.478101       -13.0098
  75   1.0000      -0.475475       -12.9383
  76   1.0000      -0.470675       -12.8077
  77   1.0000      -0.469420       -12.7736
  78   1.0000      -0.466090       -12.6830
  79   1.0000      -0.464974       -12.6526
  80   1.0000      -0.461542       -12.5592
  81   1.0000      -0.454654       -12.3718
  82   1.0000      -0.452731       -12.3194
  83   1.0000      -0.451601       -12.2887
  84   1.0000      -0.447328       -12.1724
  85   1.0000      -0.444689       -12.1006
  86   1.0000      -0.442842       -12.0504
  87   1.0000      -0.439760       -11.9665
  88   1.0000      -0.438495       -11.9321
  89   1.0000      -0.429325       -11.6825
  90   1.0000      -0.413371       -11.2484
  91   1.0000      -0.385965       -10.5026
  92   1.0000      -0.362498        -9.8641
  93   1.0000      -0.359265        -9.7761
  94   1.0000      -0.320341        -8.7169
  95   1.0000      -0.273646        -7.4463
  96   0.0000      -0.044872        -1.2210
  97   0.0000      -0.010613        -0.2888
  98   0.0000       0.017558         0.4778
  99   0.0000       0.031195         0.8488
 100   0.0000       0.040836         1.1112

                 SPIN DOWN ORBITALS
  NO   OCC          E(Eh)            E(eV)
   0   1.0000     -24.755020      -673.6183
   1   1.0000     -24.746352      -673.3825
   2   1.0000     -24.745304      -673.3539
   3   1.0000     -24.744847      -673.3415
   4   1.0000     -24.744752      -673.3389
   5   1.0000     -24.744506      -673.3322
   6   1.0000     -24.744456      -673.3309
   7   1.0000     -24.743362      -673.3011
   8   1.0000     -24.741619      -673.2537
   9   1.0000     -24.735803      -673.0954
  10   1.0000     -24.734778      -673.0675
  11   1.0000     -24.732371      -673.0020
  12   1.0000     -24.732276      -672.9994
  13   1.0000     -24.731547      -672.9796
  14   1.0000     -19.205756      -522.6152
  15   1.0000     -19.152933      -521.1778
  16   1.0000     -10.462452      -284.6978
  17   1.0000     -10.408882      -283.2401
  18   1.0000     -10.408439      -283.2280
  19   1.0000     -10.407654      -283.2067
  20   1.0000     -10.404083      -283.1095
  21   1.0000     -10.390699      -282.7453
  22   1.0000     -10.344666      -281.4927
  23   1.0000     -10.315721      -280.7050
  24   1.0000      -1.354942       -36.8698
  25   1.0000      -1.327083       -36.1118
  26   1.0000      -1.314924       -35.7809
  27   1.0000      -1.309599       -35.6360
  28   1.0000      -1.303528       -35.4708
  29   1.0000      -1.296965       -35.2922
  30   1.0000      -1.287830       -35.0436
  31   1.0000      -1.267922       -34.5019
  32   1.0000      -1.261822       -34.3359
  33   1.0000      -1.259122       -34.2625
  34   1.0000      -1.251808       -34.0634
  35   1.0000      -1.249903       -34.0116
  36   1.0000      -1.243817       -33.8460
  37   1.0000      -1.239778       -33.7361
  38   1.0000      -1.145065       -31.1588
  39   1.0000      -1.060747       -28.8644
  40   1.0000      -0.849877       -23.1263
  41   1.0000      -0.833505       -22.6808
  42   1.0000      -0.808005       -21.9869
  43   1.0000      -0.771897       -21.0044
  44   1.0000      -0.737729       -20.0746
  45   1.0000      -0.698179       -18.9984
  46   1.0000      -0.676346       -18.4043
  47   1.0000      -0.663582       -18.0570
  48   1.0000      -0.650705       -17.7066
  49   1.0000      -0.646343       -17.5879
  50   1.0000      -0.639051       -17.3895
  51   1.0000      -0.627183       -17.0665
  52   1.0000      -0.626626       -17.0514
  53   1.0000      -0.619698       -16.8628
  54   1.0000      -0.613504       -16.6943
  55   1.0000      -0.611308       -16.6345
  56   1.0000      -0.609367       -16.5817
  57   1.0000      -0.597162       -16.2496
  58   1.0000      -0.595627       -16.2078
  59   1.0000      -0.582713       -15.8564
  60   1.0000      -0.578292       -15.7361
  61   1.0000      -0.571388       -15.5483
  62   1.0000      -0.518897       -14.1199
  63   1.0000      -0.516865       -14.0646
  64   1.0000      -0.515758       -14.0345
  65   1.0000      -0.508928       -13.8486
  66   1.0000      -0.503778       -13.7085
  67   1.0000      -0.501077       -13.6350
  68   1.0000      -0.500137       -13.6094
  69   1.0000      -0.495142       -13.4735
  70   1.0000      -0.491618       -13.3776
  71   1.0000      -0.488744       -13.2994
  72   1.0000      -0.484534       -13.1848
  73   1.0000      -0.483361       -13.1529
  74   1.0000      -0.477368       -12.9898
  75   1.0000      -0.474485       -12.9114
  76   1.0000      -0.469811       -12.7842
  77   1.0000      -0.467100       -12.7104
  78   1.0000      -0.465220       -12.6593
  79   1.0000      -0.463718       -12.6184
  80   1.0000      -0.459424       -12.5016
  81   1.0000      -0.454553       -12.3690
  82   1.0000      -0.452047       -12.3008
  83   1.0000      -0.451268       -12.2796
  84   1.0000      -0.446407       -12.1474
  85   1.0000      -0.443912       -12.0795
  86   1.0000      -0.442579       -12.0432
  87   1.0000      -0.439133       -11.9494
  88   1.0000      -0.437138       -11.8951
  89   1.0000      -0.428149       -11.6505
  90   1.0000      -0.411573       -11.1995
  91   1.0000      -0.382897       -10.4191
  92   1.0000      -0.360582        -9.8119
  93   1.0000      -0.358501        -9.7553
  94   1.0000      -0.318261        -8.6603
  95   0.0000      -0.132944        -3.6176
  96   0.0000      -0.040853        -1.1117
  97   0.0000      -0.007982        -0.2172
  98   0.0000       0.019973         0.5435
  99   0.0000       0.032691         0.8896

MULLIKEN ATOMIC CHARGES AND SPIN POPULATIONS
--------------------------------------------
   0 C :    0.227902    0.002339
   1 O :   -0.351286    0.000963
   2 O :   -0.286363    0.006606
   3 C :    0.405176    0.029520
   4 C :    0.370483   -0.024081
   5 C :    0.104730    0.832876
   6 C :    0.372453    0.003180
   7 C :    0.319250    0.007444
   8 C :    0.324596    0.002216
   9 C :    0.476573    0.000888
  10 F :   -0.184436    0.000577
  11 F :   -0.181687    0.000761
  12 F :   -0.175067    0.008577
  13 F :   -0.176512    0.008521
  14 F :   -0.141777    0.087341
  15 F :   -0.175565    0.002993
  16 F :   -0.176580    0.025764
  17 F :   -0.173371    0.000934
  18 F :   -0.169317    0.001884
  19 F :   -0.165183   -0.000027
  20 F :   -0.163201    0.000145
  21 F :   -0.155218   -0.000018
  22 F :   -0.152649    0.000273
  23 F :   -0.152638    0.000022
  24 H :    0.379687    0.000300
Sum of atomic charges         :   -0.0000000

LOEWDIN ATOMIC CHARGES AND SPIN POPULATIONS
-------------------------------------------
   0 C :   -0.487311    0.004372
   1 O :    0.152839    0.001012
   2 O :    0.134024    0.005610
   3 C :   -0.446310    0.025602
   4 C :   -0.475195    0.061566
   5 C :   -0.158436    0.652599
   6 C :   -0.472535    0.063542
   7 C :   -0.449867    0.012656
   8 C :   -0.463376    0.002472
   9 C :   -0.663787    0.000716
  10 F :    0.204578    0.000754
  11 F :    0.214195    0.001160
  12 F :    0.213408    0.009865
  13 F :    0.210872    0.008810
  14 F :    0.267036    0.111723
  15 F :    0.222433    0.004074
  16 F :    0.196132    0.028639
  17 F :    0.222706    0.001598
  18 F :    0.222740    0.002460
  19 F :    0.223457    0.000028
  20 F :    0.223337    0.000193
  21 F :    0.225142    0.000002
  22 F :    0.225304    0.000327
  23 F :    0.226925    0.000052
  24 H :    0.231689    0.000169

  Mayer bond orders larger than 0.100000
B(  0-C ,  1-O ) :   1.3070 B(  0-C ,  2-O ) :   2.0826 B(  0-C ,  3-C ) :   0.9011
B(  1-O , 24-H ) :   0.8228 B(  3-C ,  4-C ) :   0.9164 B(  3-C , 10-F ) :   1.0681
B(  3-C , 11-F ) :   1.0894 B(  4-C ,  5-C ) :   1.0155 B(  4-C , 12-F ) :   1.0927
B(  4-C , 13-F ) :   1.0771 B(  5-C ,  6-C ) :   1.0474 B(  5-C , 14-F ) :   1.1304
B(  6-C ,  7-C ) :   0.9143 B(  6-C , 15-F ) :   1.0690 B(  6-C , 16-F ) :   1.0726
B(  7-C ,  8-C ) :   0.9118 B(  7-C , 17-F ) :   1.0727 B(  7-C , 18-F ) :   1.0832
B(  8-C ,  9-C ) :   0.9644 B(  8-C , 19-F ) :   1.0881 B(  8-C , 20-F ) :   1.0980
B(  9-C , 21-F ) :   1.1435 B(  9-C , 22-F ) :   1.1474 B(  9-C , 23-F ) :   1.1550

Dispersion correction           -0.043283123
FINAL SINGLE POINT ENERGY     -1853.737129049380

DIPOLE MOMENT
-------------

Method             : SCF
Type of density    : Electron Density
Multiplicity       :   2
Irrep              :   0
Energy             : -1853.6938459267921644 Eh
Relativity type    :
Basis              : AO
                                X                 Y                 Z
Electronic contribution:    -14.113834992       0.653996902      -1.698581574
Nuclear contribution   :     15.146212292      -1.260377636       1.209505456
                        -----------------------------------------
Total Dipole Moment    :      1.032377301      -0.606380733      -0.489076118
                        -----------------------------------------
Magnitude (a.u.)       :      1.293327466
Magnitude (Debye)      :      3.287377166

VIBRATIONAL FREQUENCIES
-----------------------

Scaling factor for frequencies =  1.000000000  (already applied!)

     0:       0.00 cm**-1
     1:       0.00 cm**-1
     2:       0.00 cm**-1
     3:       0.00 cm**-1
     4:       0.00 cm**-1
     5:       0.00 cm**-1
     6:      18.40 cm**-1
     7:      25.71 cm**-1
     8:      29.08 cm**-1
     9:      37.90 cm**-1
    10:      48.56 cm**-1
    11:      57.53 cm**-1
    12:      60.65 cm**-1
    13:      72.26 cm**-1
    14:      98.96 cm**-1
    15:     128.91 cm**-1
    16:     146.57 cm**-1
    17:     183.11 cm**-1
    18:     186.23 cm**-1
    19:     205.78 cm**-1
    20:     212.31 cm**-1
    21:     215.11 cm**-1
    22:     237.19 cm**-1
    23:     243.46 cm**-1
    24:     257.57 cm**-1
    25:     282.13 cm**-1
    26:     285.10 cm**-1
    27:     308.38 cm**-1
    28:     331.96 cm**-1
    29:     340.54 cm**-1
    30:     347.95 cm**-1
    31:     357.55 cm**-1
    32:     372.36 cm**-1
    33:     373.27 cm**-1
    34:     406.96 cm**-1
    35:     419.35 cm**-1
    36:     456.61 cm**-1
    37:     499.29 cm**-1
    38:     517.72 cm**-1
    39:     527.09 cm**-1
    40:     554.76 cm**-1
    41:     566.47 cm**-1
    42:     574.57 cm**-1
    43:     590.90 cm**-1
    44:     600.61 cm**-1
    45:     620.01 cm**-1
    46:     654.62 cm**-1
    47:     658.12 cm**-1
    48:     697.95 cm**-1
    49:     714.18 cm**-1
    50:     760.92 cm**-1
    51:     771.27 cm**-1
    52:     872.80 cm**-1
    53:     985.48 cm**-1
    54:    1049.05 cm**-1
    55:    1102.41 cm**-1
    56:    1119.71 cm**-1
    57:    1123.23 cm**-1
    58:    1128.35 cm**-1
    59:    1141.33 cm**-1
    60:    1143.84 cm**-1
    61:    1148.63 cm**-1
    62:    1159.60 cm**-1
    63:    1168.35 cm**-1
    64:    1173.63 cm**-1
    65:    1185.02 cm**-1
    66:    1206.11 cm**-1
    67:    1217.46 cm**-1
    68:    1256.18 cm**-1
    69:    1319.36 cm**-1
    70:    1325.48 cm**-1
    71:    1378.89 cm**-1
    72:    1402.12 cm**-1
    73:    1821.53 cm**-1
    74:    3609.21 cm**-1

IR SPECTRUM
-----------

 Mode   freq       eps      Int      T**2         TX        TY        TZ
       cm**-1   L/(mol*cm) km/mol    a.u.
----------------------------------------------------------------------------
  6:     18.40   0.000024    0.12  0.000399  ( 0.002124  0.019094 -0.005472)
  7:     25.71   0.000035    0.18  0.000427  (-0.012957 -0.004263 -0.015508)
  8:     29.08   0.000064    0.32  0.000684  ( 0.011916  0.020804 -0.010443)
  9:     37.90   0.000286    1.45  0.002357  (-0.018480 -0.044125  0.008282)
 10:     48.56   0.000009    0.05  0.000057  ( 0.006933 -0.000759 -0.002947)
 11:     57.53   0.000086    0.43  0.000465  (-0.003151 -0.020821  0.004647)
 12:     60.65   0.000414    2.09  0.002131  (-0.000943 -0.020915  0.041143)
 13:     72.26   0.000044    0.22  0.000192  ( 0.003323  0.011709  0.006628)
 14:     98.96   0.000133    0.67  0.000420  (-0.009409  0.017343  0.005529)
 15:    128.91   0.000592    2.99  0.001433  (-0.022797  0.001857 -0.030156)
 16:    146.57   0.000060    0.30  0.000127  ( 0.009290 -0.001783  0.006160)
 17:    183.11   0.000595    3.00  0.001013  ( 0.012729 -0.003303  0.028989)
 18:    186.23   0.000907    4.58  0.001519  (-0.021729 -0.001621 -0.032320)
 19:    205.78   0.001185    5.99  0.001796  ( 0.022012 -0.028737  0.022047)
 20:    212.31   0.000093    0.47  0.000136  (-0.002383  0.011336 -0.001382)
 21:    215.11   0.000425    2.15  0.000616  (-0.007926  0.001344  0.023480)
 22:    237.19   0.000046    0.23  0.000060  ( 0.005775 -0.004813  0.001980)
 23:    243.46   0.000009    0.05  0.000011  (-0.001581  0.001331 -0.002677)
 24:    257.57   0.000428    2.16  0.000518  (-0.020184 -0.003379 -0.009971)
 25:    282.13   0.001671    8.44  0.001848  (-0.038878  0.007658  0.016663)
 26:    285.10   0.000159    0.80  0.000174  (-0.007818  0.004535  0.009623)
 27:    308.38   0.000014    0.07  0.000014  ( 0.002338 -0.002676  0.001317)
 28:    331.96   0.000146    0.74  0.000137  (-0.009315 -0.001164 -0.006982)
 29:    340.54   0.000190    0.96  0.000174  (-0.005582 -0.004786 -0.010951)
 30:    347.95   0.000129    0.65  0.000116  (-0.007658  0.001384  0.007433)
 31:    357.55   0.000053    0.27  0.000046  ( 0.001422  0.001420  0.006507)
 32:    372.36   0.000097    0.49  0.000081  ( 0.008718  0.000742  0.002217)
 33:    373.27   0.000391    1.98  0.000327  ( 0.011512  0.012467  0.006236)
 34:    406.96   0.000233    1.18  0.000178  (-0.006374  0.010600 -0.005042)
 35:    419.35   0.000604    3.05  0.000450  (-0.006057  0.017447  0.010423)
 36:    456.61   0.001650    8.34  0.001128  (-0.027249 -0.011361  0.016000)
 37:    499.29   0.003139   15.86  0.001962  ( 0.038900  0.014130 -0.015781)
 38:    517.72   0.005947   30.05  0.003584  (-0.017234 -0.032736  0.047072)
 39:    527.09   0.004938   24.96  0.002924  ( 0.036869 -0.037609 -0.012247)
 40:    554.76   0.001065    5.38  0.000599  (-0.008368  0.012039 -0.019601)
 41:    566.47   0.013585   68.65  0.007484  ( 0.070128  0.021066 -0.046068)
 42:    574.57   0.005827   29.45  0.003165  ( 0.031556  0.045769 -0.008618)
 43:    590.90   0.005650   28.55  0.002984  (-0.025614 -0.030644  0.037262)
 44:    600.61   0.013699   69.23  0.007117  ( 0.050098 -0.050266  0.045618)
 45:    620.01   0.016652   84.15  0.008381  (-0.076488  0.034400 -0.036705)
 46:    654.62   0.016087   81.30  0.007669  (-0.056764  0.054260 -0.038764)
 47:    658.12   0.016499   83.38  0.007823  (-0.086270  0.019440  0.001724)
 48:    697.95   0.015911   80.41  0.007114  ( 0.071040  0.022787 -0.039348)
 49:    714.18   0.015832   80.01  0.006918  (-0.068142 -0.016351  0.044804)
 50:    760.92   0.001368    6.91  0.000561  (-0.008673 -0.015956  0.015209)
 51:    771.27   0.013310   67.26  0.005385  ( 0.059608  0.012811 -0.040845)
 52:    872.80   0.015085   76.23  0.005394  (-0.004525 -0.014370  0.071879)
 53:    985.48   0.004647   23.48  0.001471  (-0.033336  0.003868 -0.018578)
 54:   1049.05   0.043193  218.28  0.012849  ( 0.082145 -0.060261  0.049695)
 55:   1102.41   0.053933  272.56  0.015267  ( 0.035398  0.106456 -0.051780)
 56:   1119.71   0.002948   14.90  0.000822  (-0.019954 -0.019739 -0.005816)
 57:   1123.23   0.060115  303.79  0.016701  ( 0.061475 -0.055682 -0.099105)
 58:   1128.35   0.053356  269.64  0.014756  (-0.087328 -0.083654  0.011493)
 59:   1141.33   0.111604  564.00  0.030515  ( 0.056281 -0.158030 -0.048721)
 60:   1143.84   0.046275  233.85  0.012625  ( 0.040596 -0.012481  0.104024)
 61:   1148.63   0.003166   16.00  0.000860  (-0.026836 -0.009189 -0.007457)
 62:   1159.60   0.097940  494.95  0.026357  (-0.058612  0.038682 -0.146374)
 63:   1168.35   0.132841  671.32  0.035482  ( 0.013373 -0.160488 -0.097705)
 64:   1173.63   0.014727   74.42  0.003916  (-0.040333  0.040309  0.025773)
 65:   1185.02   0.059611  301.25  0.015698  ( 0.043394 -0.030726  0.113449)
 66:   1206.11   0.005011   25.32  0.001296  (-0.030462  0.008292  0.017313)
 67:   1217.46   0.002182   11.02  0.000559  (-0.007886  0.007492 -0.020997)
 68:   1256.18   0.003942   19.92  0.000979  ( 0.030279 -0.002764  0.007397)
 69:   1319.36   0.026901  135.95  0.006363  (-0.066907  0.008980  0.042492)
 70:   1325.48   0.016683   84.31  0.003928  ( 0.058524 -0.017866 -0.013545)
 71:   1378.89   0.018575   93.87  0.004204  ( 0.057255 -0.001989  0.030360)
 72:   1402.12   0.015138   76.50  0.003369  (-0.030597  0.039369  0.029718)
 73:   1821.53   0.095142  480.81  0.016300  (-0.012913 -0.086435 -0.093070)
 74:   3609.21   0.052006  262.82  0.004497  ( 0.066702 -0.006887  0.000152)

--------------------------
THERMOCHEMISTRY AT 298.15K
--------------------------

Temperature         ...   298.15 K
Pressure            ...     1.00 atm
Total Mass          ...   395.07 AMU
Quasi RRHO          ...     True
Cut-Off Frequency   ...     1.00 cm^-1

Throughout the following assumptions are being made:
  (1) The electronic state is orbitally nondegenerate
      but the spin degeneracy is treated
  (2) There are no thermally accessible electronically excited states
  (3) Hindered rotations indicated by low frequency modes are not
      treated as such but are treated as vibrations and this may
      cause some error
  (4) All equations used are the standard statistical mechanics
      equations for an ideal gas
  (5) All vibrations are strictly harmonic

freq.      18.40  E(vib)   ...       0.57
freq.      25.71  E(vib)   ...       0.56
freq.      29.08  E(vib)   ...       0.55
freq.      37.90  E(vib)   ...       0.54
freq.      48.56  E(vib)   ...       0.53
freq.      57.53  E(vib)   ...       0.51
freq.      60.65  E(vib)   ...       0.51
freq.      72.26  E(vib)   ...       0.50
freq.      98.96  E(vib)   ...       0.46
freq.     128.91  E(vib)   ...       0.43
freq.     146.57  E(vib)   ...       0.41
freq.     183.11  E(vib)   ...       0.37
freq.     186.23  E(vib)   ...       0.37
freq.     205.78  E(vib)   ...       0.35
freq.     212.31  E(vib)   ...       0.34
freq.     215.11  E(vib)   ...       0.34
freq.     237.19  E(vib)   ...       0.32
freq.     243.46  E(vib)   ...       0.31
freq.     257.57  E(vib)   ...       0.30
freq.     282.13  E(vib)   ...       0.28
freq.     285.10  E(vib)   ...       0.28
freq.     308.38  E(vib)   ...       0.26
freq.     331.96  E(vib)   ...       0.24
freq.     340.54  E(vib)   ...       0.23
freq.     347.95  E(vib)   ...       0.23
freq.     357.55  E(vib)   ...       0.22
freq.     372.36  E(vib)   ...       0.21
freq.     373.27  E(vib)   ...       0.21
freq.     406.96  E(vib)   ...       0.19
freq.     419.35  E(vib)   ...       0.18
freq.     456.61  E(vib)   ...       0.16
freq.     499.29  E(vib)   ...       0.14
freq.     517.72  E(vib)   ...       0.13
freq.     527.09  E(vib)   ...       0.13
freq.     554.76  E(vib)   ...       0.12
freq.     566.47  E(vib)   ...       0.11
freq.     574.57  E(vib)   ...       0.11
freq.     590.90  E(vib)   ...       0.10
freq.     600.61  E(vib)   ...       0.10
freq.     620.01  E(vib)   ...       0.09
freq.     654.62  E(vib)   ...       0.08
freq.     658.12  E(vib)   ...       0.08
freq.     697.95  E(vib)   ...       0.07
freq.     714.18  E(vib)   ...       0.07
freq.     760.92  E(vib)   ...       0.06
freq.     771.27  E(vib)   ...       0.05
freq.     872.80  E(vib)   ...       0.04
freq.     985.48  E(vib)   ...       0.02
freq.    1049.05  E(vib)   ...       0.02
freq.    1102.41  E(vib)   ...       0.02
freq.    1119.71  E(vib)   ...       0.01
freq.    1123.23  E(vib)   ...       0.01
freq.    1128.35  E(vib)   ...       0.01
freq.    1141.33  E(vib)   ...       0.01
freq.    1143.84  E(vib)   ...       0.01
freq.    1148.63  E(vib)   ...       0.01
freq.    1159.60  E(vib)   ...       0.01
freq.    1168.35  E(vib)   ...       0.01
freq.    1173.63  E(vib)   ...       0.01
freq.    1185.02  E(vib)   ...       0.01
freq.    1206.11  E(vib)   ...       0.01
freq.    1217.46  E(vib)   ...       0.01
freq.    1256.18  E(vib)   ...       0.01
freq.    1319.36  E(vib)   ...       0.01
freq.    1325.48  E(vib)   ...       0.01
freq.    1378.89  E(vib)   ...       0.01
freq.    1402.12  E(vib)   ...       0.00
freq.    1821.53  E(vib)   ...       0.00
freq.    3609.21  E(vib)   ...       0.00

------------
INNER ENERGY
------------

The inner energy is: U= E(el) + E(ZPE) + E(vib) + E(rot) + E(trans)
    E(el)   - is the total energy from the electronic structure calculation
              = E(kin-el) + E(nuc-el) + E(el-el) + E(nuc-nuc)
    E(ZPE)  - the the zero temperature vibrational energy from the frequency calculation
    E(vib)  - the the finite temperature correction to E(ZPE) due to population
              of excited vibrational states
    E(rot)  - is the rotational thermal energy
    E(trans)- is the translational thermal energy

Summary of contributions to the inner energy U:
Electronic energy                ...  -1853.73712905 Eh
Zero point energy                ...      0.10500909 Eh      65.89 kcal/mol
Thermal vibrational correction   ...      0.02017991 Eh      12.66 kcal/mol
Thermal rotational correction    ...      0.00141627 Eh       0.89 kcal/mol
Thermal translational correction ...      0.00141627 Eh       0.89 kcal/mol
-----------------------------------------------------------------------
Total thermal energy                  -1853.60910751 Eh

Summary of corrections to the electronic energy:
(perhaps to be used in another calculation)
Total thermal correction                  0.02301245 Eh      14.44 kcal/mol
Non-thermal (ZPE) correction              0.10500909 Eh      65.89 kcal/mol
-----------------------------------------------------------------------
Total correction                          0.12802154 Eh      80.33 kcal/mol

--------
ENTHALPY
--------

The enthalpy is H = U + kB*T
                kB is Boltzmann's constant
Total thermal energy              ...  -1853.60910751 Eh
Thermal Enthalpy correction       ...      0.00094421 Eh       0.59 kcal/mol
-----------------------------------------------------------------------
Total Enthalpy                    ...  -1853.60816330 Eh

Note: Only C1 symmetry has been detected, increase convergence thresholds
      if your molecule has a higher symmetry. Symmetry factor of 1.0 is
      used for the rotational entropy correction.

Note: Rotational entropy computed according to Herzberg
Infrared and Raman Spectra, Chapter V,1, Van Nostrand Reinhold, 1945
Point Group:  C1, Symmetry Number:   1
Rotational constants in cm-1:     0.018085     0.004424     0.004293

Vibrational entropy computed according to the QRRHO of S. Grimme
Chem.Eur.J. 2012 18 9955 using a reference frequency of 100.0 cm-1

-------
ENTROPY
-------

The entropy contributions are T*S = T*(S(el)+S(vib)+S(rot)+S(trans))
     S(el)   - electronic entropy
     S(vib)  - vibrational entropy
     S(rot)  - rotational entropy
     S(trans)- translational entropy
The entropies will be listed as multiplied by the temperature to get
units of energy

Electronic entropy                ...      0.00065446 Eh      0.41 kcal/mol
Vibrational entropy               ...      0.03657374 Eh     22.95 kcal/mol

                             ****ORCA TERMINATED NORMALLY****
TOTAL RUN TIME: 0 days 0 hours 19 minutes 47 seconds 144 msec
