                         Program Version 6.0.1  -  RELEASE   -
|  1> !r2scanh def2-TZVP freq d3 TightSCF SlowConv defgrid2
|  2>
|  3> %pal
|  4> nprocs 20
|  5> end
|  6>
|  7> %scf
|  8> MaxIter 1500
|  9> end
| 10>
| 11> %maxcore 8000
| 12>
| 13> !CPCM
| 14> %cpcm smd true
| 15> SMDsolvent "ACETONITRILE"
| 16> end
| 17>
| 18> * xyz 0 1
| 19> 6        4.745389000     -0.036840000     -0.242693000
| 20> 8        5.124956000     -0.870399000     -1.191299000
| 21> 8        5.268269000      0.988817000      0.078667000
| 22> 6        3.453636000     -0.528993000      0.448632000
| 23> 6        2.205280000      0.139762000     -0.190230000
| 24> 6        0.858998000     -0.531533000      0.216407000
| 25> 6       -0.371309000      0.394853000     -0.020099000
| 26> 6       -1.721139000     -0.385738000     -0.035686000
| 27> 6       -2.951528000      0.538488000      0.193291000
| 28> 6       -4.305463000     -0.101987000     -0.217948000
| 29> 9        3.323250000     -1.863978000      0.352260000
| 30> 9        3.510955000     -0.192077000      1.744847000
| 31> 9        2.188463000      1.431067000      0.175146000
| 32> 9        2.330963000      0.071954000     -1.526448000
| 33> 9        0.703238000     -1.650161000     -0.507651000
| 34> 9        0.906355000     -0.857399000      1.515717000
| 35> 9       -0.412285000      1.312318000      0.956887000
| 36> 9       -0.224348000      1.016745000     -1.199176000
| 37> 9       -1.703156000     -1.313914000      0.932630000
| 38> 9       -1.850903000     -0.997579000     -1.221624000
| 39> 9       -2.800047000      1.666886000     -0.517046000
| 40> 9       -3.026654000      0.845918000      1.493966000
| 41> 9       -4.428043000     -1.311261000      0.318028000
| 42> 9       -5.290449000      0.668172000      0.228376000
| 43> 9       -4.406007000     -0.197416000     -1.535794000
| 44> 1        5.926106000     -0.516923000     -1.621337000
| 45> *
| 46>
| 47>                          ****END OF INPUT****

CARTESIAN COORDINATES (ANGSTROEM)
---------------------------------
  C      4.745389   -0.036840   -0.242693
  O      5.124956   -0.870399   -1.191299
  O      5.268269    0.988817    0.078667
  C      3.453636   -0.528993    0.448632
  C      2.205280    0.139762   -0.190230
  C      0.858998   -0.531533    0.216407
  C     -0.371309    0.394853   -0.020099
  C     -1.721139   -0.385738   -0.035686
  C     -2.951528    0.538488    0.193291
  C     -4.305463   -0.101987   -0.217948
  F      3.323250   -1.863978    0.352260
  F      3.510955   -0.192077    1.744847
  F      2.188463    1.431067    0.175146
  F      2.330963    0.071954   -1.526448
  F      0.703238   -1.650161   -0.507651
  F      0.906355   -0.857399    1.515717
  F     -0.412285    1.312318    0.956887
  F     -0.224348    1.016745   -1.199176
  F     -1.703156   -1.313914    0.932630
  F     -1.850903   -0.997579   -1.221624
  F     -2.800047    1.666886   -0.517046
  F     -3.026654    0.845918    1.493966
  F     -4.428043   -1.311261    0.318028
  F     -5.290449    0.668172    0.228376
  F     -4.406007   -0.197416   -1.535794
  H      5.926106   -0.516923   -1.621337

 Total Charge           Charge          ....    0
 Multiplicity           Mult            ....    1
 Number of Electrons    NEL             ....  200
 Basis Dimension        Dim             ....  781

ORBITAL ENERGIES
----------------

  NO   OCC          E(Eh)            E(eV)
   0   2.0000     -24.735552      -673.0886
   1   2.0000     -24.735496      -673.0871
   2   2.0000     -24.735389      -673.0841
   3   2.0000     -24.735352      -673.0831
   4   2.0000     -24.734674      -673.0647
   5   2.0000     -24.734421      -673.0578
   6   2.0000     -24.734314      -673.0549
   7   2.0000     -24.733961      -673.0453
   8   2.0000     -24.733244      -673.0258
   9   2.0000     -24.733034      -673.0201
  10   2.0000     -24.732941      -673.0176
  11   2.0000     -24.732436      -673.0038
  12   2.0000     -24.732383      -673.0024
  13   2.0000     -24.723864      -672.7705
  14   2.0000     -24.721953      -672.7186
  15   2.0000     -19.197269      -522.3842
  16   2.0000     -19.141382      -520.8635
  17   2.0000     -10.442262      -284.1484
  18   2.0000     -10.391302      -282.7617
  19   2.0000     -10.390983      -282.7530
  20   2.0000     -10.390018      -282.7268
  21   2.0000     -10.388167      -282.6764
  22   2.0000     -10.385723      -282.6099
  23   2.0000     -10.376339      -282.3545
  24   2.0000     -10.326688      -281.0035
  25   2.0000      -1.364038       -37.1174
  26   2.0000      -1.346118       -36.6297
  27   2.0000      -1.333530       -36.2872
  28   2.0000      -1.321884       -35.9703
  29   2.0000      -1.318590       -35.8807
  30   2.0000      -1.316552       -35.8252
  31   2.0000      -1.309850       -35.6428
  32   2.0000      -1.277543       -34.7637
  33   2.0000      -1.273022       -34.6407
  34   2.0000      -1.268866       -34.5276
  35   2.0000      -1.267469       -34.4896
  36   2.0000      -1.262714       -34.3602
  37   2.0000      -1.259789       -34.2806
  38   2.0000      -1.259320       -34.2678
  39   2.0000      -1.251633       -34.0587
  40   2.0000      -1.152977       -31.3741
  41   2.0000      -1.066071       -29.0093
  42   2.0000      -0.852774       -23.2052
  43   2.0000      -0.836300       -22.7569
  44   2.0000      -0.811402       -22.0794
  45   2.0000      -0.777202       -21.1487
  46   2.0000      -0.735028       -20.0011
  47   2.0000      -0.697685       -18.9850
  48   2.0000      -0.679928       -18.5018
  49   2.0000      -0.662420       -18.0254
  50   2.0000      -0.646400       -17.5894
  51   2.0000      -0.643797       -17.5186
  52   2.0000      -0.633236       -17.2312
  53   2.0000      -0.628689       -17.1075
  54   2.0000      -0.627176       -17.0663
  55   2.0000      -0.622059       -16.9271
  56   2.0000      -0.611979       -16.6528
  57   2.0000      -0.606961       -16.5163
  58   2.0000      -0.602881       -16.4052
  59   2.0000      -0.597800       -16.2670
  60   2.0000      -0.592336       -16.1183
  61   2.0000      -0.585999       -15.9458
  62   2.0000      -0.578733       -15.7481
  63   2.0000      -0.574983       -15.6461
  64   2.0000      -0.563876       -15.3439
  65   2.0000      -0.512822       -13.9546
  66   2.0000      -0.508900       -13.8479
  67   2.0000      -0.506452       -13.7812
  68   2.0000      -0.500897       -13.6301
  69   2.0000      -0.498194       -13.5566
  70   2.0000      -0.493801       -13.4370
  71   2.0000      -0.490404       -13.3446
  72   2.0000      -0.487710       -13.2713
  73   2.0000      -0.483761       -13.1638
  74   2.0000      -0.478203       -13.0126
  75   2.0000      -0.478074       -13.0091
  76   2.0000      -0.475079       -12.9276
  77   2.0000      -0.471137       -12.8203
  78   2.0000      -0.468387       -12.7455
  79   2.0000      -0.463715       -12.6183
  80   2.0000      -0.460441       -12.5292
  81   2.0000      -0.456237       -12.4148
  82   2.0000      -0.451489       -12.2856
  83   2.0000      -0.448915       -12.2156
  84   2.0000      -0.444782       -12.1031
  85   2.0000      -0.442136       -12.0311
  86   2.0000      -0.441099       -12.0029
  87   2.0000      -0.438409       -11.9297
  88   2.0000      -0.435687       -11.8556
  89   2.0000      -0.434162       -11.8142
  90   2.0000      -0.430578       -11.7166
  91   2.0000      -0.429415       -11.6850
  92   2.0000      -0.428324       -11.6553
  93   2.0000      -0.423233       -11.5168
  94   2.0000      -0.415701       -11.3118
  95   2.0000      -0.397486       -10.8161
  96   2.0000      -0.368570       -10.0293
  97   2.0000      -0.351491        -9.5646
  98   2.0000      -0.336543        -9.1578
  99   2.0000      -0.303807        -8.2670
 100   0.0000      -0.063739        -1.7344
 101   0.0000      -0.015531        -0.4226
 102   0.0000      -0.000943        -0.0257
 103   0.0000       0.025697         0.6993
 104   0.0000       0.040260         1.0955

MULLIKEN ATOMIC CHARGES
-----------------------
   0 C :    0.280953
   1 O :   -0.365180
   2 O :   -0.325997
   3 C :    0.414693
   4 C :    0.287253
   5 C :    0.321049
   6 C :    0.327294
   7 C :    0.298486
   8 C :    0.331697
   9 C :    0.470973
  10 F :   -0.173609
  11 F :   -0.169753
  12 F :   -0.165504
  13 F :   -0.167709
  14 F :   -0.162929
  15 F :   -0.161529
  16 F :   -0.161484
  17 F :   -0.161806
  18 F :   -0.162384
  19 F :   -0.161431
  20 F :   -0.162319
  21 F :   -0.158508
  22 F :   -0.155397
  23 F :   -0.152783
  24 F :   -0.153353
  25 H :    0.389275
Sum of atomic charges:    0.0000000

LOEWDIN ATOMIC CHARGES
----------------------
   0 C :   -0.496178
   1 O :    0.161326
   2 O :    0.134673
   3 C :   -0.464941
   4 C :   -0.467905
   5 C :   -0.471291
   6 C :   -0.471432
   7 C :   -0.472739
   8 C :   -0.479555
   9 C :   -0.680240
  10 F :    0.217890
  11 F :    0.223356
  12 F :    0.233211
  13 F :    0.229730
  14 F :    0.233114
  15 F :    0.234847
  16 F :    0.235043
  17 F :    0.234502
  18 F :    0.234070
  19 F :    0.234346
  20 F :    0.231254
  21 F :    0.233532
  22 F :    0.231676
  23 F :    0.232361
  24 F :    0.234209
  25 H :    0.235143

  Mayer bond orders larger than 0.100000
B(  0-C ,  1-O ) :   1.2961 B(  0-C ,  2-O ) :   2.0428 B(  0-C ,  3-C ) :   0.8814
B(  1-O , 25-H ) :   0.8171 B(  3-C ,  4-C ) :   0.9499 B(  3-C , 10-F ) :   1.0809
B(  3-C , 11-F ) :   1.1003 B(  4-C ,  5-C ) :   0.9314 B(  4-C , 12-F ) :   1.0824
B(  4-C , 13-F ) :   1.0780 B(  5-C ,  6-C ) :   0.9335 B(  5-C , 14-F ) :   1.0820
B(  5-C , 15-F ) :   1.0856 B(  6-C ,  7-C ) :   0.9301 B(  6-C , 16-F ) :   1.0835
B(  6-C , 17-F ) :   1.0808 B(  7-C ,  8-C ) :   0.9351 B(  7-C , 18-F ) :   1.0814
B(  7-C , 19-F ) :   1.0938 B(  8-C ,  9-C ) :   0.9527 B(  8-C , 20-F ) :   1.0824
B(  8-C , 21-F ) :   1.0985 B(  9-C , 22-F ) :   1.1294 B(  9-C , 23-F ) :   1.1334
B(  9-C , 24-F ) :   1.1437

Dispersion correction           -0.008682436
FINAL SINGLE POINT ENERGY     -1953.467294791271

DIPOLE MOMENT
-------------

Method             : SCF
Type of density    : Electron Density
Multiplicity       :   1
Irrep              :   0
Energy             : -1953.4586123549877357 Eh
Relativity type    :
Basis              : AO
                                X                 Y                 Z
Electronic contribution:    -14.821701308      -0.277251738       1.639370187
Nuclear contribution   :     15.535918976      -0.175533891      -2.490881994
                        -----------------------------------------
Total Dipole Moment    :      0.714217669      -0.452785628      -0.851511807
                        -----------------------------------------
Magnitude (a.u.)       :      1.200080856
Magnitude (Debye)      :      3.050363119

VIBRATIONAL FREQUENCIES
-----------------------

Scaling factor for frequencies =  1.000000000  (already applied!)

     0:       0.00 cm**-1
     1:       0.00 cm**-1
     2:       0.00 cm**-1
     3:       0.00 cm**-1
     4:       0.00 cm**-1
     5:       0.00 cm**-1
     6:      17.71 cm**-1
     7:      32.20 cm**-1
     8:      34.73 cm**-1
     9:      46.83 cm**-1
    10:      57.98 cm**-1
    11:      64.67 cm**-1
    12:      67.55 cm**-1
    13:      73.36 cm**-1
    14:     116.77 cm**-1
    15:     134.83 cm**-1
    16:     159.66 cm**-1
    17:     186.14 cm**-1
    18:     200.42 cm**-1
    19:     203.97 cm**-1
    20:     207.95 cm**-1
    21:     230.71 cm**-1
    22:     243.02 cm**-1
    23:     253.32 cm**-1
    24:     258.80 cm**-1
    25:     263.29 cm**-1
    26:     286.39 cm**-1
    27:     307.38 cm**-1
    28:     313.25 cm**-1
    29:     337.39 cm**-1
    30:     350.69 cm**-1
    31:     363.59 cm**-1
    32:     367.44 cm**-1
    33:     372.27 cm**-1
    34:     378.58 cm**-1
    35:     380.30 cm**-1
    36:     414.32 cm**-1
    37:     469.71 cm**-1
    38:     515.43 cm**-1
    39:     522.92 cm**-1
    40:     535.52 cm**-1
    41:     560.40 cm**-1
    42:     567.75 cm**-1
    43:     587.21 cm**-1
    44:     595.84 cm**-1
    45:     607.31 cm**-1
    46:     625.55 cm**-1
    47:     646.53 cm**-1
    48:     658.93 cm**-1
    49:     691.35 cm**-1
    50:     713.84 cm**-1
    51:     733.00 cm**-1
    52:     764.91 cm**-1
    53:     785.10 cm**-1
    54:     885.18 cm**-1
    55:    1021.61 cm**-1
    56:    1113.42 cm**-1
    57:    1139.59 cm**-1
    58:    1151.10 cm**-1
    59:    1155.97 cm**-1
    60:    1164.81 cm**-1
    61:    1171.54 cm**-1
    62:    1172.83 cm**-1
    63:    1177.32 cm**-1
    64:    1184.75 cm**-1
    65:    1189.58 cm**-1
    66:    1195.84 cm**-1
    67:    1207.83 cm**-1
    68:    1212.77 cm**-1
    69:    1227.09 cm**-1
    70:    1250.01 cm**-1
    71:    1280.52 cm**-1
    72:    1297.82 cm**-1
    73:    1320.44 cm**-1
    74:    1375.27 cm**-1
    75:    1422.10 cm**-1
    76:    1845.80 cm**-1
    77:    3650.61 cm**-1

IR SPECTRUM
-----------

 Mode   freq       eps      Int      T**2         TX        TY        TZ
       cm**-1   L/(mol*cm) km/mol    a.u.
----------------------------------------------------------------------------
  6:     17.71   0.000171    0.86  0.003013  (-0.019253 -0.050387  0.010148)
  7:     32.20   0.000108    0.55  0.001047  (-0.001252  0.028197 -0.015830)
  8:     34.73   0.000072    0.36  0.000644  (-0.016396  0.006625 -0.018204)
  9:     46.83   0.000217    1.10  0.001446  (-0.014916  0.028048 -0.020908)
 10:     57.98   0.000334    1.69  0.001798  ( 0.024076 -0.009757  0.033513)
 11:     64.67   0.000117    0.59  0.000563  ( 0.018786 -0.000853  0.014470)
 12:     67.55   0.000019    0.09  0.000087  ( 0.001870  0.008661  0.002856)
 13:     73.36   0.000136    0.69  0.000577  ( 0.022114  0.004538  0.008222)
 14:    116.77   0.000152    0.77  0.000407  (-0.013486  0.014964 -0.001219)
 15:    134.83   0.000009    0.05  0.000021  (-0.001510  0.003844  0.002082)
 16:    159.66   0.000124    0.63  0.000242  ( 0.013519  0.000856  0.007654)
 17:    186.14   0.002959   14.96  0.004961  ( 0.003289 -0.004352 -0.070226)
 18:    200.42   0.000164    0.83  0.000255  ( 0.013674 -0.008073  0.001653)
 19:    203.97   0.000063    0.32  0.000096  (-0.007746 -0.000479 -0.006021)
 20:    207.95   0.000421    2.13  0.000632  (-0.000354  0.024792 -0.004090)
 21:    230.71   0.000090    0.46  0.000122  (-0.003448 -0.003249  0.009991)
 22:    243.02   0.000015    0.08  0.000019  (-0.004251 -0.001000 -0.000518)
 23:    253.32   0.000256    1.29  0.000315  (-0.016433 -0.003394  0.005806)
 24:    258.80   0.000016    0.08  0.000019  ( 0.000719 -0.004342  0.000014)
 25:    263.29   0.000258    1.30  0.000306  ( 0.014568  0.008022 -0.005407)
 26:    286.39   0.001325    6.70  0.001444  (-0.035404  0.013480  0.002996)
 27:    307.38   0.000049    0.25  0.000049  (-0.003225 -0.000001  0.006242)
 28:    313.25   0.000109    0.55  0.000109  (-0.008562  0.005790 -0.001463)
 29:    337.39   0.000084    0.42  0.000078  (-0.007420 -0.000931 -0.004675)
 30:    350.69   0.000326    1.65  0.000290  (-0.007827 -0.007716 -0.012998)
 31:    363.59   0.000102    0.52  0.000088  (-0.001837  0.002667  0.008781)
 32:    367.44   0.000030    0.15  0.000026  (-0.003188 -0.003430 -0.001970)
 33:    372.27   0.000137    0.69  0.000115  (-0.010668  0.000639 -0.000730)
 34:    378.58   0.000758    3.83  0.000624  ( 0.022046  0.011660  0.001568)
 35:    380.30   0.000183    0.93  0.000150  (-0.006545 -0.009989 -0.002761)
 36:    414.32   0.000266    1.34  0.000200  (-0.003556  0.013510 -0.002237)
 37:    469.71   0.000574    2.90  0.000382  (-0.011949  0.004539  0.014773)
 38:    515.43   0.015489   78.27  0.009378  ( 0.093455 -0.010986 -0.022869)
 39:    522.92   0.000240    1.22  0.000144  ( 0.004333 -0.011168  0.000167)
 40:    535.52   0.002663   13.46  0.001552  ( 0.021751 -0.032806  0.001471)
 41:    560.40   0.011262   56.91  0.006271  ( 0.069459  0.032979 -0.018956)
 42:    567.75   0.003176   16.05  0.001746  ( 0.011145 -0.037041  0.015788)
 43:    587.21   0.005284   26.70  0.002808  ( 0.042394 -0.011474 -0.029649)
 44:    595.84   0.016007   80.89  0.008384  (-0.072579  0.021778 -0.051398)
 45:    607.31   0.002160   10.91  0.001110  (-0.026816 -0.000122  0.019762)
 46:    625.55   0.005505   27.82  0.002746  (-0.010015 -0.022232  0.046384)
 47:    646.53   0.060124  303.84  0.029020  (-0.158318  0.055339 -0.029885)
 48:    658.93   0.004168   21.06  0.001974  (-0.010414 -0.004804 -0.042924)
 49:    691.35   0.004417   22.32  0.001994  (-0.031907 -0.025634  0.017855)
 50:    713.84   0.007097   35.87  0.003103  (-0.048861 -0.006617 -0.025911)
 51:    733.00   0.001552    7.84  0.000661  ( 0.023505  0.001726 -0.010257)
 52:    764.91   0.001966    9.94  0.000802  (-0.015334 -0.007833  0.022488)
 53:    785.10   0.006666   33.69  0.002650  ( 0.024519  0.011168 -0.043861)
 54:    885.18   0.001780    8.99  0.000627  (-0.020526  0.014347  0.000484)
 55:   1021.61   0.014643   74.00  0.004473  (-0.065693  0.010958 -0.006105)
 56:   1113.42   0.008903   44.99  0.002495  (-0.026892 -0.041562 -0.006690)
 57:   1139.59   0.007219   36.48  0.001977  ( 0.023444  0.000663  0.037774)
 58:   1151.10   0.055475  280.35  0.015039  ( 0.003181 -0.098599 -0.072853)
 59:   1155.97   0.078800  398.22  0.021273  (-0.040472 -0.103418  0.094549)
 60:   1164.81   0.000491    2.48  0.000132  ( 0.005743 -0.009277 -0.003548)
 61:   1171.54   0.084861  428.85  0.022605  (-0.009112  0.149412  0.014059)
 62:   1172.83   0.000932    4.71  0.000248  (-0.010704 -0.008418  0.007906)
 63:   1177.32   0.046544  235.21  0.012337  ( 0.006841  0.082891  0.073615)
 64:   1184.75   0.169874  858.47  0.044745  (-0.001879  0.031181  0.209211)
 65:   1189.58   0.105637  533.84  0.027712  ( 0.032688 -0.162039 -0.019664)
 66:   1195.84   0.072182  364.78  0.018836  (-0.006661 -0.002530  0.137061)
 67:   1207.83   0.022187  112.13  0.005732  (-0.041382 -0.010693  0.062495)
 68:   1212.77   0.074083  374.39  0.019063  ( 0.004457 -0.032202  0.134186)
 69:   1227.09   0.005380   27.19  0.001368  (-0.020155  0.028442  0.012369)
 70:   1250.01   0.009435   47.68  0.002355  (-0.035673  0.005869  0.032379)
 71:   1280.52   0.002026   10.24  0.000494  (-0.003915 -0.018909 -0.010998)
 72:   1297.82   0.002999   15.16  0.000721  ( 0.017771 -0.014723 -0.013731)
 73:   1320.44   0.010213   51.61  0.002414  (-0.042001  0.018049 -0.017992)
 74:   1375.27   0.021194  107.11  0.004809  (-0.069124  0.001809  0.005272)
 75:   1422.10   0.015690   79.29  0.003443  ( 0.039275 -0.033833 -0.027493)
 76:   1845.80   0.093732  473.68  0.015847  (-0.039904 -0.104320 -0.058070)
 77:   3650.61   0.050908  257.27  0.004352  (-0.052235 -0.002889  0.040186)

--------------------------
THERMOCHEMISTRY AT 298.15K
--------------------------

Temperature         ...   298.15 K
Pressure            ...     1.00 atm
Total Mass          ...   414.06 AMU
Quasi RRHO          ...     True
Cut-Off Frequency   ...     1.00 cm^-1

Throughout the following assumptions are being made:
  (1) The electronic state is orbitally nondegenerate
  (2) There are no thermally accessible electronically excited states
  (3) Hindered rotations indicated by low frequency modes are not
      treated as such but are treated as vibrations and this may
      cause some error
  (4) All equations used are the standard statistical mechanics
      equations for an ideal gas
  (5) All vibrations are strictly harmonic

freq.      17.71  E(vib)   ...       0.57
freq.      32.20  E(vib)   ...       0.55
freq.      34.73  E(vib)   ...       0.54
freq.      46.83  E(vib)   ...       0.53
freq.      57.98  E(vib)   ...       0.51
freq.      64.67  E(vib)   ...       0.50
freq.      67.55  E(vib)   ...       0.50
freq.      73.36  E(vib)   ...       0.49
freq.     116.77  E(vib)   ...       0.44
freq.     134.83  E(vib)   ...       0.42
freq.     159.66  E(vib)   ...       0.39
freq.     186.14  E(vib)   ...       0.37
freq.     200.42  E(vib)   ...       0.35
freq.     203.97  E(vib)   ...       0.35
freq.     207.95  E(vib)   ...       0.34
freq.     230.71  E(vib)   ...       0.32
freq.     243.02  E(vib)   ...       0.31
freq.     253.32  E(vib)   ...       0.30
freq.     258.80  E(vib)   ...       0.30
freq.     263.29  E(vib)   ...       0.29
freq.     286.39  E(vib)   ...       0.27
freq.     307.38  E(vib)   ...       0.26
freq.     313.25  E(vib)   ...       0.25
freq.     337.39  E(vib)   ...       0.24
freq.     350.69  E(vib)   ...       0.23
freq.     363.59  E(vib)   ...       0.22
freq.     367.44  E(vib)   ...       0.21
freq.     372.27  E(vib)   ...       0.21
freq.     378.58  E(vib)   ...       0.21
freq.     380.30  E(vib)   ...       0.21
freq.     414.32  E(vib)   ...       0.19
freq.     469.71  E(vib)   ...       0.16
freq.     515.43  E(vib)   ...       0.13
freq.     522.92  E(vib)   ...       0.13
freq.     535.52  E(vib)   ...       0.12
freq.     560.40  E(vib)   ...       0.11
freq.     567.75  E(vib)   ...       0.11
freq.     587.21  E(vib)   ...       0.10
freq.     595.84  E(vib)   ...       0.10
freq.     607.31  E(vib)   ...       0.10
freq.     625.55  E(vib)   ...       0.09
freq.     646.53  E(vib)   ...       0.09
freq.     658.93  E(vib)   ...       0.08
freq.     691.35  E(vib)   ...       0.07
freq.     713.84  E(vib)   ...       0.07
freq.     733.00  E(vib)   ...       0.06
freq.     764.91  E(vib)   ...       0.06
freq.     785.10  E(vib)   ...       0.05
freq.     885.18  E(vib)   ...       0.04
freq.    1021.61  E(vib)   ...       0.02
freq.    1113.42  E(vib)   ...       0.01
freq.    1139.59  E(vib)   ...       0.01
freq.    1151.10  E(vib)   ...       0.01
freq.    1155.97  E(vib)   ...       0.01
freq.    1164.81  E(vib)   ...       0.01
freq.    1171.54  E(vib)   ...       0.01
freq.    1172.83  E(vib)   ...       0.01
freq.    1177.32  E(vib)   ...       0.01
freq.    1184.75  E(vib)   ...       0.01
freq.    1189.58  E(vib)   ...       0.01
freq.    1195.84  E(vib)   ...       0.01
freq.    1207.83  E(vib)   ...       0.01
freq.    1212.77  E(vib)   ...       0.01
freq.    1227.09  E(vib)   ...       0.01
freq.    1250.01  E(vib)   ...       0.01
freq.    1280.52  E(vib)   ...       0.01
freq.    1297.82  E(vib)   ...       0.01
freq.    1320.44  E(vib)   ...       0.01
freq.    1375.27  E(vib)   ...       0.01
freq.    1422.10  E(vib)   ...       0.00
freq.    1845.80  E(vib)   ...       0.00
freq.    3650.61  E(vib)   ...       0.00

------------
INNER ENERGY
------------

The inner energy is: U= E(el) + E(ZPE) + E(vib) + E(rot) + E(trans)
    E(el)   - is the total energy from the electronic structure calculation
              = E(kin-el) + E(nuc-el) + E(el-el) + E(nuc-nuc)
    E(ZPE)  - the the zero temperature vibrational energy from the frequency calculation
    E(vib)  - the the finite temperature correction to E(ZPE) due to population
              of excited vibrational states
    E(rot)  - is the rotational thermal energy
    E(trans)- is the translational thermal energy

Summary of contributions to the inner energy U:
Electronic energy                ...  -1953.46729479 Eh
Zero point energy                ...      0.11190491 Eh      70.22 kcal/mol
Thermal vibrational correction   ...      0.02038255 Eh      12.79 kcal/mol
Thermal rotational correction    ...      0.00141627 Eh       0.89 kcal/mol
Thermal translational correction ...      0.00141627 Eh       0.89 kcal/mol
-----------------------------------------------------------------------
Total thermal energy                  -1953.33217479 Eh

Summary of corrections to the electronic energy:
(perhaps to be used in another calculation)
Total thermal correction                  0.02321509 Eh      14.57 kcal/mol
Non-thermal (ZPE) correction              0.11190491 Eh      70.22 kcal/mol
-----------------------------------------------------------------------
Total correction                          0.13512000 Eh      84.79 kcal/mol

--------
ENTHALPY
--------

The enthalpy is H = U + kB*T
                kB is Boltzmann's constant
Total thermal energy              ...  -1953.33217479 Eh
Thermal Enthalpy correction       ...      0.00094421 Eh       0.59 kcal/mol
-----------------------------------------------------------------------
Total Enthalpy                    ...  -1953.33123058 Eh

Note: Only C1 symmetry has been detected, increase convergence thresholds
      if your molecule has a higher symmetry. Symmetry factor of 1.0 is
      used for the rotational entropy correction.

Note: Rotational entropy computed according to Herzberg
Infrared and Raman Spectra, Chapter V,1, Van Nostrand Reinhold, 1945
Point Group:  C1, Symmetry Number:   1
Rotational constants in cm-1:     0.021429     0.003744     0.003703

Vibrational entropy computed according to the QRRHO of S. Grimme
Chem.Eur.J. 2012 18 9955 using a reference frequency of 100.0 cm-1

-------
ENTROPY
-------

The entropy contributions are T*S = T*(S(el)+S(vib)+S(rot)+S(trans))
     S(el)   - electronic entropy
     S(vib)  - vibrational entropy
     S(rot)  - rotational entropy
     S(trans)- translational entropy
The entropies will be listed as multiplied by the temperature to get
units of energy

                             ****ORCA TERMINATED NORMALLY****
TOTAL RUN TIME: 0 days 0 hours 17 minutes 7 seconds 326 msec
