                         Program Version 5.0.3 -  RELEASE  -
|  1> !B3LYP def2-TZVP opt d3 TightSCF SlowConv defgrid2
|  2>
|  3> %pal
|  4> nprocs 20
|  5> end
|  6>
|  7> %scf
|  8> MaxIter 1500
|  9> end
| 10>
| 11> %maxcore 8000
| 12>
| 13> !CPCM
| 14> %cpcm smd true
| 15> SMDsolvent "ACETONITRILE"
| 16> end
| 17>
| 18> * xyz -1 2
| 19> 6        4.790427000     -0.033865800     -0.529943200
| 20> 8        5.449345000     -1.206924000     -0.894594600
| 21> 8        4.978223000      1.323071000     -0.737377200
| 22> 6        3.506687600     -0.338741600      0.376153800
| 23> 6        2.222300000      0.400524800     -0.110681600
| 24> 6        0.900506800     -0.386389800      0.175703000
| 25> 6       -0.395261200      0.487294000      0.065549000
| 26> 6       -1.705693600     -0.364773800     -0.068373600
| 27> 6       -3.005136200      0.445344800      0.258164000
| 28> 6       -4.319880200     -0.214526000     -0.270540800
| 29> 9        3.211587400     -1.692050400      0.412735200
| 30> 9        3.741061800      0.055285800      1.689948800
| 31> 9        2.125696800      1.616867800      0.483236600
| 32> 9        2.314152400      0.589704000     -1.455769200
| 33> 9        0.794028800     -1.413561400     -0.700839000
| 34> 9        0.958350600     -0.884509000      1.435093400
| 35> 9       -0.498373400      1.260265600      1.173340200
| 36> 9       -0.299075000      1.289512600     -1.020910800
| 37> 9       -1.641790400     -1.418189000      0.779523800
| 38> 9       -1.792381400     -0.831391600     -1.336863600
| 39> 9       -2.918792200      1.679227200     -0.295171200
| 40> 9       -3.119771000      0.573779800      1.598579800
| 41> 9       -5.365669800      0.430528600      0.260394200
| 42> 9       -4.396020400     -0.128550600     -1.602941800
| 43> *
| 44>
| 45>                          ****END OF INPUT****
 Total Charge           Charge          ....   -1
 Multiplicity           Mult            ....    2
 Number of Electrons    NEL             ....  191
Dispersion correction           -0.042222920
FINAL SINGLE POINT ENERGY     -1853.210292595109
Dispersion correction            ... done
Dispersion correction           -0.042409293
FINAL SINGLE POINT ENERGY     -1853.255200735795
Dispersion correction            ... done
Dispersion correction           -0.042495419
FINAL SINGLE POINT ENERGY     -1853.261065657209
Dispersion correction            ... done
FINAL SINGLE POINT ENERGY     -1853.264843561281
FINAL SINGLE POINT ENERGY     -1853.265062868957
FINAL SINGLE POINT ENERGY     -1853.265331795596
FINAL SINGLE POINT ENERGY     -1853.265829357746
FINAL SINGLE POINT ENERGY     -1853.265888930332
FINAL SINGLE POINT ENERGY     -1853.265914702931
FINAL SINGLE POINT ENERGY     -1853.265917523195
Dispersion correction            ... done
Dispersion correction           -0.042466350
FINAL SINGLE POINT ENERGY     -1853.265927515950
Dispersion correction            ... done
Dispersion correction           -0.042466229
FINAL SINGLE POINT ENERGY     -1853.265931568736
Dispersion correction            ... done
                    ***********************HURRAY********************

CARTESIAN COORDINATES (ANGSTROEM)
---------------------------------
  C      4.831103    0.082418   -0.353835
  O      5.387568   -0.754175   -1.076174
  O      5.116646    1.257725   -0.075048
  C      3.505186   -0.415857    0.355943
  C      2.234401    0.299985   -0.182790
  C      0.880673   -0.417191    0.146481
  C     -0.379244    0.505996   -0.010478
  C     -1.727429   -0.289610   -0.093974
  C     -3.002104    0.563119    0.201540
  C     -4.275570   -0.190668   -0.154341
  F      3.311931   -1.758271    0.196636
  F      3.574748   -0.192309    1.704103
  F      2.174783    1.554641    0.317756
  F      2.333778    0.385122   -1.532829
  F      0.735963   -1.481740   -0.671743
  F      0.914694   -0.857782    1.421403
  F     -0.431973    1.342536    1.045446
  F     -0.257194    1.240175   -1.135332
  F     -1.707197   -1.302382    0.797638
  F     -1.840790   -0.808575   -1.334688
  F     -2.921911    1.731171   -0.497499
  F     -3.041560    0.857590    1.514841
  F     -5.339196    0.157924    0.546281
  F     -4.542782   -0.271907   -1.444923

 Multiplicity           Mult            ....    2
 Number of Electrons    NEL             ....  191
 Basis Dimension        Dim             ....  744

ORBITAL ENERGIES
----------------
                 SPIN UP ORBITALS
  NO   OCC          E(Eh)            E(eV)
   0   1.0000     -24.747287      -673.4079
   1   1.0000     -24.747013      -673.4005
   2   1.0000     -24.740445      -673.2217
   3   1.0000     -24.739832      -673.2050
   4   1.0000     -24.738557      -673.1704
   5   1.0000     -24.738520      -673.1694
   6   1.0000     -24.736917      -673.1257
   7   1.0000     -24.734163      -673.0508
   8   1.0000     -24.734063      -673.0481
   9   1.0000     -24.733404      -673.0301
  10   1.0000     -24.723041      -672.7481
  11   1.0000     -24.722996      -672.7469
  12   1.0000     -24.697941      -672.0651
  13   1.0000     -24.697894      -672.0639
  14   1.0000     -19.061147      -518.6802
  15   1.0000     -19.059464      -518.6344
  16   1.0000     -10.402842      -283.0757
  17   1.0000     -10.402563      -283.0681
  18   1.0000     -10.401952      -283.0515
  19   1.0000     -10.396424      -282.9011
  20   1.0000     -10.381287      -282.4892
  21   1.0000     -10.375722      -282.3377
  22   1.0000     -10.343061      -281.4490
  23   1.0000     -10.254064      -279.0273
  24   1.0000      -1.330076       -36.1932
  25   1.0000      -1.321477       -35.9592
  26   1.0000      -1.310045       -35.6481
  27   1.0000      -1.302002       -35.4293
  28   1.0000      -1.298590       -35.3364
  29   1.0000      -1.291038       -35.1309
  30   1.0000      -1.263089       -34.3704
  31   1.0000      -1.262390       -34.3514
  32   1.0000      -1.258812       -34.2540
  33   1.0000      -1.250274       -34.0217
  34   1.0000      -1.244331       -33.8600
  35   1.0000      -1.243334       -33.8328
  36   1.0000      -1.233492       -33.5650
  37   1.0000      -1.204712       -32.7819
  38   1.0000      -1.024376       -27.8747
  39   1.0000      -0.941906       -25.6306
  40   1.0000      -0.844651       -22.9841
  41   1.0000      -0.824130       -22.4257
  42   1.0000      -0.794196       -21.6112
  43   1.0000      -0.754109       -20.5203
  44   1.0000      -0.709098       -19.2956
  45   1.0000      -0.678820       -18.4716
  46   1.0000      -0.669659       -18.2223
  47   1.0000      -0.640110       -17.4183
  48   1.0000      -0.638288       -17.3687
  49   1.0000      -0.628691       -17.1076
  50   1.0000      -0.619865       -16.8674
  51   1.0000      -0.616836       -16.7850
  52   1.0000      -0.613271       -16.6880
  53   1.0000      -0.601476       -16.3670
  54   1.0000      -0.600009       -16.3271
  55   1.0000      -0.592848       -16.1322
  56   1.0000      -0.583092       -15.8667
  57   1.0000      -0.578883       -15.7522
  58   1.0000      -0.575254       -15.6535
  59   1.0000      -0.564596       -15.3634
  60   1.0000      -0.555368       -15.1123
  61   1.0000      -0.550045       -14.9675
  62   1.0000      -0.508993       -13.8504
  63   1.0000      -0.507638       -13.8135
  64   1.0000      -0.502660       -13.6781
  65   1.0000      -0.497686       -13.5427
  66   1.0000      -0.491226       -13.3670
  67   1.0000      -0.487158       -13.2562
  68   1.0000      -0.484778       -13.1915
  69   1.0000      -0.480425       -13.0730
  70   1.0000      -0.475043       -12.9266
  71   1.0000      -0.473808       -12.8930
  72   1.0000      -0.468248       -12.7417
  73   1.0000      -0.465875       -12.6771
  74   1.0000      -0.459193       -12.4953
  75   1.0000      -0.455742       -12.4014
  76   1.0000      -0.451329       -12.2813
  77   1.0000      -0.449513       -12.2319
  78   1.0000      -0.448409       -12.2018
  79   1.0000      -0.445256       -12.1160
  80   1.0000      -0.441365       -12.0102
  81   1.0000      -0.437947       -11.9172
  82   1.0000      -0.434903       -11.8343
  83   1.0000      -0.432571       -11.7709
  84   1.0000      -0.427016       -11.6197
  85   1.0000      -0.416607       -11.3365
  86   1.0000      -0.411886       -11.2080
  87   1.0000      -0.403691       -10.9850
  88   1.0000      -0.399278       -10.8649
  89   1.0000      -0.384838       -10.4720
  90   1.0000      -0.375248       -10.2110
  91   1.0000      -0.342203        -9.3118
  92   1.0000      -0.263708        -7.1759
  93   1.0000      -0.250270        -6.8102
  94   1.0000      -0.238508        -6.4901
  95   1.0000      -0.236662        -6.4399
  96   0.0000      -0.003799        -0.1034
  97   0.0000       0.006563         0.1786
  98   0.0000       0.028672         0.7802
  99   0.0000       0.053132         1.4458
 100   0.0000       0.058882         1.6023

                 SPIN DOWN ORBITALS
  NO   OCC          E(Eh)            E(eV)
   0   1.0000     -24.743584      -673.3072
   1   1.0000     -24.743135      -673.2949
   2   1.0000     -24.740336      -673.2188
   3   1.0000     -24.739780      -673.2036
   4   1.0000     -24.738555      -673.1703
   5   1.0000     -24.738519      -673.1693
   6   1.0000     -24.736918      -673.1258
   7   1.0000     -24.734163      -673.0508
   8   1.0000     -24.733404      -673.0301
   9   1.0000     -24.732633      -673.0092
  10   1.0000     -24.723041      -672.7481
  11   1.0000     -24.722996      -672.7469
  12   1.0000     -24.697941      -672.0651
  13   1.0000     -24.697894      -672.0638
  14   1.0000     -19.061147      -518.6802
  15   1.0000     -19.059464      -518.6344
  16   1.0000     -10.402856      -283.0761
  17   1.0000     -10.402530      -283.0672
  18   1.0000     -10.401222      -283.0317
  19   1.0000     -10.396426      -282.9011
  20   1.0000     -10.381287      -282.4892
  21   1.0000     -10.360266      -281.9172
  22   1.0000     -10.343061      -281.4490
  23   1.0000     -10.254064      -279.0273
  24   1.0000      -1.328894       -36.1610
  25   1.0000      -1.316453       -35.8225
  26   1.0000      -1.307804       -35.5871
  27   1.0000      -1.301962       -35.4282
  28   1.0000      -1.296234       -35.2723
  29   1.0000      -1.291028       -35.1307
  30   1.0000      -1.262464       -34.3534
  31   1.0000      -1.260213       -34.2921
  32   1.0000      -1.254592       -34.1392
  33   1.0000      -1.249399       -33.9979
  34   1.0000      -1.244307       -33.8593
  35   1.0000      -1.241409       -33.7805
  36   1.0000      -1.233492       -33.5650
  37   1.0000      -1.204712       -32.7819
  38   1.0000      -1.024375       -27.8747
  39   1.0000      -0.941906       -25.6306
  40   1.0000      -0.842862       -22.9354
  41   1.0000      -0.820602       -22.3297
  42   1.0000      -0.789982       -21.4965
  43   1.0000      -0.749482       -20.3944
  44   1.0000      -0.704743       -19.1770
  45   1.0000      -0.673866       -18.3368
  46   1.0000      -0.669564       -18.2197
  47   1.0000      -0.638635       -17.3781
  48   1.0000      -0.636521       -17.3206
  49   1.0000      -0.627091       -17.0640
  50   1.0000      -0.617728       -16.8092
  51   1.0000      -0.614044       -16.7090
  52   1.0000      -0.611485       -16.6394
  53   1.0000      -0.598954       -16.2984
  54   1.0000      -0.598057       -16.2739
  55   1.0000      -0.590818       -16.0770
  56   1.0000      -0.582107       -15.8399
  57   1.0000      -0.577097       -15.7036
  58   1.0000      -0.574668       -15.6375
  59   1.0000      -0.563996       -15.3471
  60   1.0000      -0.550045       -14.9675
  61   1.0000      -0.526756       -14.3338
  62   1.0000      -0.507973       -13.8226
  63   1.0000      -0.506682       -13.7875
  64   1.0000      -0.500933       -13.6311
  65   1.0000      -0.496903       -13.5214
  66   1.0000      -0.490791       -13.3551
  67   1.0000      -0.484168       -13.1749
  68   1.0000      -0.480697       -13.0804
  69   1.0000      -0.476097       -12.9553
  70   1.0000      -0.474581       -12.9140
  71   1.0000      -0.468719       -12.7545
  72   1.0000      -0.468010       -12.7352
  73   1.0000      -0.460119       -12.5205
  74   1.0000      -0.457982       -12.4623
  75   1.0000      -0.455536       -12.3958
  76   1.0000      -0.449579       -12.2337
  77   1.0000      -0.447814       -12.1856
  78   1.0000      -0.446197       -12.1416
  79   1.0000      -0.444803       -12.1037
  80   1.0000      -0.440962       -11.9992
  81   1.0000      -0.437402       -11.9023
  82   1.0000      -0.434344       -11.8191
  83   1.0000      -0.432380       -11.7657
  84   1.0000      -0.426350       -11.6016
  85   1.0000      -0.416078       -11.3221
  86   1.0000      -0.411885       -11.2080
  87   1.0000      -0.402488       -10.9523
  88   1.0000      -0.399255       -10.8643
  89   1.0000      -0.384836       -10.4719
  90   1.0000      -0.373509       -10.1637
  91   1.0000      -0.341455        -9.2915
  92   1.0000      -0.250270        -6.8102
  93   1.0000      -0.238505        -6.4901
  94   1.0000      -0.236662        -6.4399
  95   0.0000      -0.103787        -2.8242
  96   0.0000      -0.000050        -0.0013
  97   0.0000       0.007575         0.2061
  98   0.0000       0.030976         0.8429
  99   0.0000       0.055688         1.5153

MULLIKEN ATOMIC CHARGES AND SPIN POPULATIONS
--------------------------------------------
   0 C :    0.144510    0.000003
   1 O :   -0.472945    0.000012
   2 O :   -0.486637    0.000002
   3 C :    0.344240   -0.000018
   4 C :    0.313468    0.000079
   5 C :    0.336086    0.000369
   6 C :    0.325754    0.000475
   7 C :    0.309998    0.009925
   8 C :    0.402583   -0.016521
   9 C :    0.265232    0.845861
  10 F :   -0.211945    0.000001
  11 F :   -0.217847    0.000001
  12 F :   -0.183880   -0.000001
  13 F :   -0.191256   -0.000001
  14 F :   -0.176737   -0.000010
  15 F :   -0.175166   -0.000032
  16 F :   -0.171223   -0.000044
  17 F :   -0.171814   -0.000024
  18 F :   -0.173357    0.001182
  19 F :   -0.171427    0.000667
  20 F :   -0.180363    0.028578
  21 F :   -0.169148    0.000644
  22 F :   -0.143654    0.065648
  23 F :   -0.144471    0.063205
Sum of atomic charges         :   -1.0000000

LOEWDIN ATOMIC CHARGES AND SPIN POPULATIONS
-------------------------------------------
   0 C :   -0.693094    0.000002
   1 O :   -0.050422    0.000010
   2 O :   -0.056805    0.000002
   3 C :   -0.436899    0.000004
   4 C :   -0.453885   -0.000012
   5 C :   -0.454427    0.000018
   6 C :   -0.454890   -0.000299
   7 C :   -0.455260    0.004519
   8 C :   -0.486967    0.073299
   9 C :   -0.388984    0.704600
  10 F :    0.163934    0.000000
  11 F :    0.155507    0.000001
  12 F :    0.208903    0.000001
  13 F :    0.202731    0.000000
  14 F :    0.215111    0.000014
  15 F :    0.217082    0.000017
  16 F :    0.221233    0.000055
  17 F :    0.220531    0.000069
  18 F :    0.223140    0.002535
  19 F :    0.221215    0.001282
  20 F :    0.195159    0.030244
  21 F :    0.221066    0.000317
  22 F :    0.233333    0.093458
  23 F :    0.232688    0.089864

  Mayer bond orders larger than 0.100000
B(  0-C ,  1-O ) :   1.8972 B(  0-C ,  2-O ) :   1.8731 B(  0-C ,  3-C ) :   0.8452
B(  3-C ,  4-C ) :   0.9237 B(  3-C , 10-F ) :   1.0435 B(  3-C , 11-F ) :   1.0310
B(  4-C ,  5-C ) :   0.9263 B(  4-C , 12-F ) :   1.0670 B(  4-C , 13-F ) :   1.0574
B(  5-C ,  6-C ) :   0.9368 B(  5-C , 14-F ) :   1.0698 B(  5-C , 15-F ) :   1.0776
B(  6-C ,  7-C ) :   0.9341 B(  6-C , 16-F ) :   1.0797 B(  6-C , 17-F ) :   1.0796
B(  7-C ,  8-C ) :   0.9338 B(  7-C , 18-F ) :   1.0727 B(  7-C , 19-F ) :   1.0785
B(  8-C ,  9-C ) :   0.8992 B(  8-C , 20-F ) :   1.0590 B(  8-C , 21-F ) :   1.0971
B(  9-C , 22-F ) :   1.1375 B(  9-C , 23-F ) :   1.1427

Dispersion correction           -0.042466214
FINAL SINGLE POINT ENERGY     -1853.265936270740

DIPOLE MOMENT
-------------
                                X             Y             Z
Electronic contribution:    -17.39654      -0.47515       1.66484
Nuclear contribution   :      8.61940       0.14615      -0.93854
                        -----------------------------------------
Total Dipole Moment    :     -8.77714      -0.32900       0.72631
                        -----------------------------------------
Magnitude (a.u.)       :      8.81328
Magnitude (Debye)      :     22.40159

Rotational constants in cm-1:     0.022688     0.004048     0.004015
Rotational constants in MHz :   680.176861   121.363936   120.372596

                             ****ORCA TERMINATED NORMALLY****
TOTAL RUN TIME: 0 days 0 hours 26 minutes 30 seconds 458 msec
